2677
Lattice="40.794 0.0 0.0 0.0 40.794 0.0 0.0 0.0 40.794" Properties=species:S:1:pos:R:3:forces:R:3 energy=-19994.8828125 free_energy=-19994.8828125 stress="0.01605925686219376 -0.0001485693119373554 -5.418306519191287e-05 -0.0001485693119373554 0.008479033623835858 0.00038177625957945224 -5.418306519191287e-05 0.00038177625957945224 0.008216494062909372" pbc="T T T"
Fe       7.50000000      16.09800000      16.09800000       0.85104918       0.36204809       0.35761812
Fe       7.50000000      16.09800000      18.96400000       0.58515024       0.41235512       0.00725223
Fe       7.50000000      16.09800000      21.83000000       0.69043553       0.53006804       0.03098286
Fe       7.50000000      16.09800000      24.69600000       0.89213097       0.40870014      -0.33246806
Fe       7.50000000      18.96400000      16.09800000       0.54528821       0.03540840       0.44323775
Fe       7.50000000      18.96400000      18.96400000       0.24805687      -0.00764067       0.01296786
Fe       7.50000000      18.96400000      21.83000000      -0.45186847      -0.80623776      -0.76340592
Fe       7.50000000      18.96400000      24.69600000      -0.23881954      -0.79733920       0.37294865
Fe       7.50000000      21.83000000      16.09800000      -0.15910694      -0.80222619      -0.28390330
Fe       7.50000000      21.83000000      18.96400000      -0.41233197      -0.69062406       0.76082015
Fe       7.50000000      21.83000000      21.83000000      -0.43680295       0.79358065      -0.80099410
Fe       7.50000000      21.83000000      24.69600000      -0.22667754       0.79830742       0.37702686
Fe       7.50000000      24.69600000      16.09800000       0.10847677       0.44302344      -0.38643545
Fe       7.50000000      24.69600000      18.96400000      -0.17578632       0.35747796       0.78101569
Fe       7.50000000      24.69600000      21.83000000       0.52810347      -0.42940882      -0.04553993
Fe       7.50000000      24.69600000      24.69600000       0.85937262      -0.31412202      -0.35592252
Fe      10.36600000      13.23200000      16.09800000      -0.57691407      -0.63312614       0.92969042
Fe      10.36600000      13.23200000      18.96400000       0.23601058       0.19439113      -0.02391063
Fe      10.36600000      13.23200000      21.83000000       0.23026550       0.23300813       0.03004053
Fe      10.36600000      13.23200000      24.69600000      -0.58876234      -0.62380385      -0.91194904
Fe      10.36600000      16.09800000      13.23200000      -0.61102915       0.89827442      -0.66230255
Fe       8.93300000      14.66500000      14.66500000      -0.23264223       0.67451680       0.65894860
Fe      10.36600000      16.09800000      16.09800000      -1.05895865       0.59121066       0.58491737
Fe       8.93300000      14.66500000      17.53100000      -0.12009135       0.30433533      -0.01930507
Fe      10.36600000      16.09800000      18.96400000       0.00036785      -0.09909513       0.02419356
Fe       8.93300000      14.66500000      20.39700000      -0.04776371       0.29242042       0.00872128
Fe      10.36600000      16.09800000      21.83000000      -0.01140706      -0.08754718      -0.01384299
Fe       8.93300000      14.66500000      23.26300000      -0.08311882       0.31636238       0.00466493
Fe      10.36600000      16.09800000      24.69600000      -1.07103729       0.56263095      -0.59015810
Fe       8.93300000      14.66500000      26.12900000      -0.23335859       0.62198633      -0.63002348
Fe      10.36600000      16.09800000      27.56200000      -0.53076810       0.92184091       0.57255751
Fe      10.36600000      18.96400000      13.23200000       0.22606809      -0.04122676       0.14186931
Fe       8.93300000      17.53100000      14.66500000      -0.12301116      -0.01877987       0.31899238
Fe      10.36600000      18.96400000      16.09800000      -0.00653851       0.00215183      -0.08938187
Fe       8.93300000      17.53100000      17.53100000      -0.18186633      -0.10977444      -0.13226914
Fe      10.36600000      18.96400000      18.96400000       0.13365322       0.01615475       0.00271362
Fe       8.93300000      17.53100000      20.39700000      -0.14579819      -0.08364213       0.00936935
Fe      10.36600000      18.96400000      21.83000000       0.89690751      -0.83064747      -0.82769948
Fe       8.93300000      17.53100000      23.26300000      -0.18266013      -0.84091669       0.07839885
Fe      10.36600000      18.96400000      24.69600000       0.77266854      -0.81832576       0.94273609
Fe       8.93300000      17.53100000      26.12900000      -0.08656047      -0.00768935      -0.30782324
Fe      10.36600000      18.96400000      27.56200000       0.26346442      -0.04697736      -0.20840874
Fe      10.36600000      21.83000000      13.23200000       0.32069027      -0.02819702       0.24095497
Fe       8.93300000      20.39700000      14.66500000       0.03620153      -0.00164570       0.32528704
Fe      10.36600000      21.83000000      16.09800000       0.74708420      -0.83347881      -0.92803323
Fe       8.93300000      20.39700000      17.53100000      -0.19696836      -0.72423428      -0.07522975
Fe      10.36600000      21.83000000      18.96400000       0.87368429      -0.83361977       0.83612227
Fe       8.93300000      20.39700000      20.39700000      -0.05661701      -0.00724417      -0.69670564
Fe      10.36600000      21.83000000      21.83000000       0.89321882       0.83290166      -0.84102392
K        8.93300000      20.39700000      23.26300000      -0.91442919       0.00351467       0.01318472
Fe      10.36600000      21.83000000      24.69600000       0.75653827       0.81829768       0.93468928
Fe       8.93300000      20.39700000      26.12900000      -0.03168504       0.01604513       0.34745795
Fe      10.36600000      21.83000000      27.56200000       0.25297502       0.04857707      -0.20330369
Fe      10.36600000      24.69600000      13.23200000       0.33095127      -0.00758684       0.27438781
Fe       8.93300000      23.26300000      14.66500000      -0.11438154       0.04498984      -0.33656812
Fe      10.36600000      24.69600000      16.09800000       0.55852699       1.06291461      -1.05344152
K        8.93300000      23.26300000      17.53100000      -0.92657900       0.01073520      -0.03426617
Fe      10.36600000      24.69600000      18.96400000       0.75809777       0.92511165       0.84260881
Fe       8.93300000      23.26300000      20.39700000      -0.15108609       0.04653704       0.71378160
Fe      10.36600000      24.69600000      21.83000000      -0.00638538       0.06852689       0.00151384
Fe       8.93300000      23.26300000      23.26300000      -0.16752134       0.84533209       0.09420769
Fe      10.36600000      24.69600000      24.69600000      -1.07831836      -0.55472666      -0.58526421
Fe       8.93300000      23.26300000      26.12900000      -0.09954844       0.00045140      -0.28088248
Fe      10.36600000      24.69600000      27.56200000      -0.60126114      -0.90168405       0.64725500
Fe       8.93300000      26.12900000      14.66500000       0.53039551      -0.65046954       0.53724808
Fe      10.36600000      27.56200000      16.09800000       0.32275102      -0.22953992       0.01648193
Fe       8.93300000      26.12900000      17.53100000      -0.14864373       0.41850770      -0.04387619
Fe      10.36600000      27.56200000      18.96400000       0.17958280      -0.12931874       0.03817867
Fe       8.93300000      26.12900000      20.39700000       0.02470994      -0.28484908      -0.02527437
Fe      10.36600000      27.56200000      21.83000000       0.18022573      -0.12823966       0.01611195
Fe       8.93300000      26.12900000      23.26300000      -0.13679275      -0.29653919       0.02249943
Fe      10.36600000      27.56200000      24.69600000      -0.56796032       0.61728907      -0.92576599
Fe       8.93300000      26.12900000      26.12900000      -0.24318703      -0.62001282      -0.65076989
Fe      13.23200000      10.36600000      16.09800000       0.23239595       0.26460615       0.05575027
Fe      13.23200000      10.36600000      18.96400000       0.24141824       0.27045619       0.03196246
Fe      13.23200000      10.36600000      21.83000000       0.22024587       0.23224391      -0.03622944
Fe      13.23200000      10.36600000      24.69600000       0.32820213       0.30425048      -0.05910248
Fe      13.23200000      13.23200000      13.23200000       0.98353678      -0.76160491      -0.73633581
Fe      11.79900000      11.79900000      14.66500000       0.66971362      -0.21349958       0.56242228
Fe      13.23200000      13.23200000      16.09800000       0.58063799      -1.04748595       0.68327779
Fe      11.79900000      11.79900000      17.53100000       0.24581636       0.18230490       0.00012954
Fe      13.23200000      13.23200000      18.96400000      -0.09795602      -0.08435129       0.00943503
Fe      11.79900000      11.79900000      20.39700000       0.18602660       0.17067236      -0.01149752
Fe      13.23200000      13.23200000      21.83000000      -0.09732931      -0.08517322      -0.00001620
Fe      11.79900000      11.79900000      23.26300000       0.18665859       0.09138832       0.00843959
Fe      13.23200000      13.23200000      24.69600000       0.56769544      -1.05745745      -0.69445598
Fe      11.79900000      11.79900000      26.12900000       0.69343591      -0.15560515      -0.53957635
Fe      13.23200000      13.23200000      27.56200000       0.94049847      -0.79318339       0.80742347
Fe      13.23200000      16.09800000      10.36600000       0.19717208       0.04537255       0.27237943
Fe      11.79900000      14.66500000      11.79900000       0.60364628       0.57623935      -0.25731966
Fe      13.23200000      16.09800000      13.23200000       0.57308763       0.67469263      -1.03723216
K       11.79900000      14.66500000      14.66500000      -1.04252434      -1.13934243      -1.15288413
Fe      13.23200000      16.09800000      16.09800000       0.96620905       0.93128252       0.93584287
Fe      11.79900000      14.66500000      17.53100000      -0.05616782      -0.09707750       0.78396446
Fe      13.23200000      16.09800000      18.96400000       0.02612847       0.03650367      -0.01825271
Fe      11.79900000      14.66500000      20.39700000      -0.08700468      -0.09017596      -0.00454481
Fe      13.23200000      16.09800000      21.83000000       0.02169814       0.03792015       0.02808455
Fe      11.79900000      14.66500000      23.26300000      -0.05390715      -0.10631864      -0.77399313
Fe      13.23200000      16.09800000      24.69600000       0.96072674       0.92988437      -0.93551958
K       11.79900000      14.66500000      26.12900000      -1.06631184      -1.13363647       1.13065577
Fe      13.23200000      16.09800000      27.56200000       0.56009054       0.67669904       1.04547262
Fe      11.79900000      14.66500000      28.99500000       0.65686888       0.53480184       0.25108582
Fe      13.23200000      16.09800000      30.42800000       0.25456658       0.04340655      -0.25952792
Fe      13.23200000      18.96400000      10.36600000       0.17636329       0.00518083       0.24375914
Fe      11.79900000      17.53100000      11.79900000       0.16339231       0.02018372       0.09780198
Fe      13.23200000      18.96400000      13.23200000      -0.08952546       0.00073666      -0.06006204
Fe      11.79900000      17.53100000      14.66500000      -0.05421798       0.79516149      -0.08562871
Fe      13.23200000      18.96400000      16.09800000       0.02484776      -0.01732213       0.04746165
Fe      11.79900000      17.53100000      17.53100000       0.07353432       0.02340208       0.02174139
Fe      13.23200000      18.96400000      18.96400000      -0.02544888       0.00359203      -0.01307181
Fe      11.79900000      17.53100000      20.39700000      -0.05110668       0.10309749       0.07727773
Fe      13.23200000      18.96400000      21.83000000      -0.03710533       0.00017070       0.01241234
Fe      11.79900000      17.53100000      23.26300000       0.09400432       0.04501925      -0.03814002
Fe      13.23200000      18.96400000      24.69600000       0.02577622      -0.01389014      -0.04241514
Fe      11.79900000      17.53100000      26.12900000      -0.12254250       0.85687733       0.03610584
Fe      13.23200000      18.96400000      27.56200000      -0.09774015       0.00956165       0.06529932
Fe      11.79900000      17.53100000      28.99500000       0.26226738       0.03577280      -0.17707342
Fe      13.23200000      18.96400000      30.42800000       0.12310068       0.01015039      -0.16540518
Fe      13.23200000      21.83000000      10.36600000       0.21903697       0.03518718       0.26299047
Fe      11.79900000      20.39700000      11.79900000       0.21156111      -0.02706780       0.24537691
Fe      13.23200000      21.83000000      13.23200000      -0.07849382      -0.00081047      -0.09358548
Fe      11.79900000      20.39700000      14.66500000      -0.16272715       0.06820273      -0.04241550
Fe      13.23200000      21.83000000      16.09800000       0.04881743       0.01332328       0.05227185
Fe      11.79900000      20.39700000      17.53100000       0.02314946       0.01334989       0.02656220
Fe      13.23200000      21.83000000      18.96400000      -0.02744642       0.00358724      -0.00698516
Fe      11.79900000      20.39700000      20.39700000      -0.08182041       0.07486118      -0.06032027
Fe      13.23200000      21.83000000      21.83000000      -0.03804641       0.01114930       0.01024233
Fe      11.79900000      20.39700000      23.26300000       0.80825752       0.00191445      -0.02769636
Fe      13.23200000      21.83000000      24.69600000       0.02808088       0.01257126      -0.04193109
Fe      11.79900000      20.39700000      26.12900000      -0.05998512      -0.00373571       0.08653857
Fe      13.23200000      21.83000000      27.56200000      -0.08013988      -0.00532975       0.06223135
Fe      11.79900000      20.39700000      28.99500000       0.19695470       0.00248832      -0.20640500
Fe      13.23200000      21.83000000      30.42800000       0.14650552      -0.03953954      -0.19407852
Fe      13.23200000      24.69600000      10.36600000      -0.56225598      -0.86338151      -0.53055257
Fe      11.79900000      23.26300000      11.79900000       0.18696572       0.00425059       0.29541558
Fe      13.23200000      24.69600000      13.23200000      -1.04344285      -0.69889754       0.58418524
Fe      11.79900000      23.26300000      14.66500000       0.03648481       0.08458665      -0.17147042
Fe      13.23200000      24.69600000      16.09800000       0.08024071      -0.02166714       0.04739850
Fe      11.79900000      23.26300000      17.53100000       0.85802746      -0.03087397       0.03706415
Fe      13.23200000      24.69600000      18.96400000       0.03435485      -0.05581842      -0.00210378
Fe      11.79900000      23.26300000      20.39700000      -0.03972385      -0.09836785       0.06493186
Fe      13.23200000      24.69600000      21.83000000       0.01839275      -0.04796132       0.01727948
Fe      11.79900000      23.26300000      23.26300000       0.08689898      -0.03816692      -0.03594884
Fe      13.23200000      24.69600000      24.69600000       0.95957291      -0.93257993      -0.93190402
Fe      11.79900000      23.26300000      26.12900000      -0.11397385      -0.84923410       0.02534835
Fe      13.23200000      24.69600000      27.56200000       0.56776392      -0.66561675       1.05338252
Fe      11.79900000      23.26300000      28.99500000       0.18619274      -0.01887718      -0.09107608
Fe      13.23200000      24.69600000      30.42800000       0.26499981      -0.05775118      -0.29233634
Fe      11.79900000      26.12900000      11.79900000      -0.25535882      -0.47211277       0.66271329
Fe      13.23200000      27.56200000      13.23200000      -0.80915010       0.74872333       0.95571625
Fe      11.79900000      26.12900000      14.66500000      -0.42226377       0.17936364      -0.22534718
Fe      13.23200000      27.56200000      16.09800000      -0.19966689       0.19427331      -0.15779877
Fe      11.79900000      26.12900000      17.53100000      -0.03749204       0.07586493      -0.01019929
Fe      13.23200000      27.56200000      18.96400000      -0.06242960       0.07243230      -0.01002522
Fe      11.79900000      26.12900000      20.39700000      -0.12992634      -0.00589981      -0.08976904
Fe      13.23200000      27.56200000      21.83000000      -0.07574625       0.05170122      -0.01281645
Fe      11.79900000      26.12900000      23.26300000      -0.04894383       0.08988446      -0.77461028
Fe      13.23200000      27.56200000      24.69600000       0.58551747       1.03123581      -0.67757285
K       11.79900000      26.12900000      26.12900000      -1.02873278       1.15277314       1.15549076
Fe      13.23200000      27.56200000      27.56200000       0.96292537       0.78740531       0.78969842
Fe      11.79900000      26.12900000      28.99500000       0.63343883      -0.47892800       0.19436243
Fe      11.79900000      28.99500000      14.66500000       0.68400335      -0.82333732       0.48433271
Fe      13.23200000      30.42800000      16.09800000       0.25592694      -0.28575754       0.03457569
Fe      11.79900000      28.99500000      17.53100000       0.13818651      -0.16485168      -0.02779687
Fe      13.23200000      30.42800000      18.96400000       0.20583582      -0.26153356      -0.00828555
Fe      11.79900000      28.99500000      20.39700000       0.18670368      -0.18353389       0.00498923
Fe      13.23200000      30.42800000      21.83000000       0.17029834      -0.22956482       0.00209231
Fe      11.79900000      28.99500000      23.26300000       0.18712610      -0.10402535      -0.00133004
Fe      13.23200000      30.42800000      24.69600000       0.17093091      -0.20925242      -0.04360326
Fe      11.79900000      28.99500000      26.12900000       0.60556746       0.26191333      -0.49139324
Fe      16.09800000       7.50000000      16.09800000       0.34479922       0.87353522       0.35630292
Fe      16.09800000       7.50000000      18.96400000       0.52932894       0.54700261      -0.04573734
Fe      16.09800000       7.50000000      21.83000000       0.47204173       0.50852633       0.03897072
Fe      16.09800000       7.50000000      24.69600000       0.29896945       0.87570703      -0.32090378
Fe      16.09800000      10.36600000      13.23200000       0.02724041       0.42559946       0.28646320
Fe      14.66500000       8.93300000      14.66500000       0.65294766       0.56508958       0.69359285
Fe      16.09800000      10.36600000      16.09800000      -0.20592061      -0.25769722      -0.21370934
Fe      14.66500000       8.93300000      17.53100000       0.34920475      -0.03961575      -0.09564926
Fe      16.09800000      10.36600000      18.96400000      -0.08616899      -0.00364174       0.00186167
Fe      14.66500000       8.93300000      20.39700000       0.25438315       0.00471990      -0.00059477
Fe      16.09800000      10.36600000      21.83000000      -0.07801561       0.00609524      -0.01289007
Fe      14.66500000       8.93300000      23.26300000       0.26391971      -0.11025828       0.06748431
Fe      16.09800000      10.36600000      24.69600000      -0.19989002      -0.24016578       0.22726391
Fe      14.66500000       8.93300000      26.12900000       0.65966427       0.54411983      -0.70678455
Fe      16.09800000      10.36600000      27.56200000       0.02478006       0.30040669      -0.26842779
Fe      16.09800000      13.23200000      10.36600000      -0.00364990       0.16964650       0.30352539
Fe      14.66500000      11.79900000      11.79900000       0.53012234       0.85670185       0.74101686
Fe      16.09800000      13.23200000      13.23200000      -0.15952827      -0.19821365      -0.21017843
Fe      14.66500000      11.79900000      14.66500000      -0.29623231      -0.34244376      -0.27142763
Fe      16.09800000      13.23200000      16.09800000       0.03948698       0.06751882       0.01855320
Fe      14.66500000      11.79900000      17.53100000      -0.18794107       0.00132982      -0.09647162
Fe      16.09800000      13.23200000      18.96400000       0.04828817       0.04583412       0.00616477
Fe      14.66500000      11.79900000      20.39700000      -0.10298204      -0.08816966      -0.00557197
Fe      16.09800000      13.23200000      21.83000000       0.04497685       0.04432523      -0.00528626
Fe      14.66500000      11.79900000      23.26300000      -0.19053264       0.01409869       0.10109383
Fe      16.09800000      13.23200000      24.69600000       0.03933113       0.07070936      -0.01691603
Fe      14.66500000      11.79900000      26.12900000      -0.28598765      -0.36081159       0.25180236
Fe      16.09800000      13.23200000      27.56200000      -0.15759300      -0.19799340       0.20151655
Fe      14.66500000      11.79900000      28.99500000       0.36237410       0.68125087      -0.69925499
Fe      16.09800000      13.23200000      30.42800000       0.02267731       0.30788815      -0.34137341
Fe      16.09800000      16.09800000       7.50000000      -0.47636461      -0.47260010       0.11686455
Fe      14.66500000      14.66500000       8.93300000       0.58097392       0.60730684       0.44205549
Fe      16.09800000      16.09800000      10.36600000      -1.03303552      -1.05025864       0.54372448
Fe      14.66500000      14.66500000      11.79900000      -0.18836230      -0.18580830      -0.40631238
Fe      16.09800000      16.09800000      13.23200000       0.04270279       0.01901822       0.08297656
Fe      14.66500000      14.66500000      14.66500000       0.84822798       0.01863510       0.01638745
Fe      16.09800000      16.09800000      16.09800000      -0.01097257      -0.00217320       0.00032852
Fe      14.66500000      14.66500000      17.53100000       0.04564728       0.06315210      -0.00610271
Fe      16.09800000      16.09800000      18.96400000      -0.00686904      -0.01226386      -0.00357823
Fe      14.66500000      14.66500000      20.39700000       0.03544973       0.03595822      -0.00058522
Fe      16.09800000      16.09800000      21.83000000      -0.00595204      -0.01235209       0.00480789
Fe      14.66500000      14.66500000      23.26300000       0.04672169       0.06164934       0.00621421
Fe      16.09800000      16.09800000      24.69600000      -0.00764734      -0.00064038      -0.00148046
Fe      14.66500000      14.66500000      26.12900000       0.84203327       0.00833310      -0.01097385
Fe      16.09800000      16.09800000      27.56200000       0.03913362       0.02058713      -0.06341372
Fe      14.66500000      14.66500000      28.99500000      -0.29140693      -0.25617218       0.34847504
Fe      16.09800000      16.09800000      30.42800000      -0.21602720      -0.21645737       0.23366681
Fe      14.66500000      14.66500000      31.86100000       0.57348144       0.61357754      -0.50505859
Fe      16.09800000      16.09800000      33.29400000       0.36996168       0.34253183      -0.92649740
Fe      16.09800000      18.96400000       7.50000000      -0.34438002       0.77237940      -0.21560836
Fe      14.66500000      17.53100000       8.93300000      -0.41198865      -0.04452828      -0.15474744
Fe      16.09800000      18.96400000      10.36600000      -0.92613059       0.85073185       0.77013832
Fe      14.66500000      17.53100000      11.79900000      -0.16345288      -0.08828317       0.04633479
Fe      16.09800000      18.96400000      13.23200000       0.05359593      -0.01093430       0.04267205
Fe      14.66500000      17.53100000      14.66500000       0.04635331      -0.00373286       0.06650792
Fe      16.09800000      18.96400000      16.09800000      -0.00458706      -0.00562428      -0.00830737
Fe      14.66500000      17.53100000      17.53100000      -0.10726152      -0.10613586      -0.10362918
Fe      16.09800000      18.96400000      18.96400000       0.00907253       0.00086543       0.00071348
Fe      14.66500000      17.53100000      20.39700000      -0.00535146      -0.00596689       0.00158803
Fe      16.09800000      18.96400000      21.83000000       0.00906724       0.00129276      -0.00045995
Fe      14.66500000      17.53100000      23.26300000      -0.10494928      -0.10318557       0.10333031
Fe      16.09800000      18.96400000      24.69600000      -0.00485952      -0.00476868       0.01051436
Fe      14.66500000      17.53100000      26.12900000       0.04517455      -0.00192902      -0.06564462
Fe      16.09800000      18.96400000      27.56200000       0.05393861      -0.00719188      -0.03667182
Fe      14.66500000      17.53100000      28.99500000      -0.16466349      -0.11015256      -0.01431261
Fe      16.09800000      18.96400000      30.42800000      -0.05959198      -0.02265213      -0.00053222
Fe      14.66500000      17.53100000      31.86100000       0.23744449      -0.06970015       0.11167975
Fe      16.09800000      18.96400000      33.29400000       0.41444755       0.01491645      -0.61793691
Fe      16.09800000      21.83000000       7.50000000       0.46004239      -0.02969846       0.57708502
Fe      14.66500000      20.39700000       8.93300000       0.29189557      -0.03272434       0.02869080
Fe      16.09800000      21.83000000      10.36600000      -0.08401207      -0.00299341       0.00597293
Fe      14.66500000      20.39700000      11.79900000      -0.01914464      -0.08418281      -0.14463693
Fe      16.09800000      21.83000000      13.23200000       0.05279300       0.02197326       0.02035511
Fe      14.66500000      20.39700000      14.66500000       0.03803451      -0.00168476       0.03664435
Fe      16.09800000      21.83000000      16.09800000      -0.00898023       0.00566498      -0.00290965
Fe      14.66500000      20.39700000      17.53100000       0.00106423      -0.00052194      -0.00562938
Fe      16.09800000      21.83000000      18.96400000       0.01187897      -0.00207757       0.00295702
Fe      14.66500000      20.39700000      20.39700000       0.00909536       0.00233073      -0.00135496
Fe      16.09800000      21.83000000      21.83000000       0.01057119      -0.00089039      -0.00036256
Fe      14.66500000      20.39700000      23.26300000       0.01388604       0.00051229       0.00824051
Fe      16.09800000      21.83000000      24.69600000      -0.00436428       0.00481167       0.01098195
Fe      14.66500000      20.39700000      26.12900000       0.04033916       0.00207762      -0.03217797
Fe      16.09800000      21.83000000      27.56200000       0.05209806       0.00819972      -0.03970724
Fe      14.66500000      20.39700000      28.99500000      -0.00251181       0.08072785       0.13202903
Fe      16.09800000      21.83000000      30.42800000      -0.93490934      -0.84800065      -0.76505029
Fe      14.66500000      20.39700000      31.86100000       0.26640955       0.00367982      -0.02309402
Fe      16.09800000      21.83000000      33.29400000      -0.32382289      -0.75760520       0.19676641
Fe      16.09800000      24.69600000       7.50000000       0.37851584      -0.36041334       0.88945127
Fe      14.66500000      23.26300000       8.93300000       0.36535943       0.06245929      -0.06643440
Fe      16.09800000      24.69600000      10.36600000       0.56144267      -0.60191363      -1.06277156
Fe      14.66500000      23.26300000      11.79900000      -0.09201275      -0.80107564      -0.06461029
Fe      16.09800000      24.69600000      13.23200000       0.93144834      -0.93387842       0.96588528
Fe      14.66500000      23.26300000      14.66500000       0.06658228       0.00474782       0.04801557
Fe      16.09800000      24.69600000      16.09800000       0.00324443      -0.00102812      -0.00590781
Fe      14.66500000      23.26300000      17.53100000       0.00485725       0.00806950      -0.00334720
Fe      16.09800000      24.69600000      18.96400000      -0.00338143       0.00409860       0.00157939
Fe      14.66500000      23.26300000      20.39700000      -0.00434558       0.00685983       0.00079348
Fe      16.09800000      24.69600000      21.83000000      -0.00480614       0.01107972       0.00274665
Fe      14.66500000      23.26300000      23.26300000      -0.10399933       0.10235216       0.10261157
Fe      16.09800000      24.69600000      24.69600000      -0.00550905      -0.00109700      -0.00040175
Fe      14.66500000      23.26300000      26.12900000       0.04354871       0.00152720      -0.06620276
Fe      16.09800000      24.69600000      27.56200000       0.04251415      -0.02003878      -0.07567431
Fe      14.66500000      23.26300000      28.99500000      -0.15701059       0.09807950      -0.04447071
Fe      16.09800000      24.69600000      30.42800000      -1.07565880       1.06879604      -0.54674149
Fe      14.66500000      23.26300000      31.86100000      -0.38668135       0.06581263       0.11400316
Fe      16.09800000      24.69600000      33.29400000      -0.41727543       0.37794948      -0.17731428
Fe      14.66500000      26.12900000       8.93300000       0.76827103      -0.71732926      -0.16819492
Fe      16.09800000      27.56200000      10.36600000       0.87761509       0.59126288      -0.52555621
K       14.66500000      26.12900000      11.79900000      -1.14802313       1.15171504      -1.03660536
Fe      16.09800000      27.56200000      13.23200000       0.67483729       1.03858197       0.56222850
Fe      14.66500000      26.12900000      14.66500000       0.01094132      -0.01447136       0.84365594
Fe      16.09800000      27.56200000      16.09800000       0.02701887      -0.06996126       0.04427549