5097
Lattice="49.392 0.0 0.0 0.0 49.392 0.0 0.0 0.0 49.392" Properties=species:S:1:pos:R:3:forces:R:3 energy=-34542.83984375 free_energy=-34542.83984375 stress="0.0048152937311670176 -0.00019410629093154683 -0.00016992849717926557 -0.00019410629093154683 0.001177392505389254 -0.00021977775676508527 -0.00016992849717926557 -0.00021977775676508527 0.0004321717883414403" pbc="T T T"
Fe       9.16144736      17.72226240      20.61213889       0.00188761      -0.00288292       0.00395724
Fe       9.12735687      17.72246090      23.34159930       0.00584476      -0.00008824       0.00244108
Fe       9.13394875      17.71260020      26.10838437       0.00482283      -0.00223488       0.00197283
Fe       9.17101569      17.72762914      28.86942114      -0.00285522      -0.00237974      -0.00421050
Fe       9.15761424      20.56293137      17.76294399      -0.00325187      -0.00061425      -0.00253562
Fe       7.84378135      19.24772276      19.30496932       0.00235292       0.00206073       0.00669779
Fe       9.26094455      20.52899147      20.58059604       0.00930475       0.00402018       0.01053505
Fe       7.75243328      19.25321880      21.96905558       0.00237237       0.00203232      -0.00410837
Fe       9.24735158      20.53272803      23.33722619       0.00355040       0.00161023      -0.00220673
Fe       7.78655623      19.24701568      24.71782635       0.00020051       0.00505659       0.00001457
Fe       9.24713936      20.53975013      26.10886463       0.00299446      -0.00184857      -0.00024695
Fe       7.79879037      19.22289655      27.46459898      -0.00156680      -0.00134067       0.00340997
Fe       9.25001246      20.54264509      28.88053572       0.00422473       0.00207604      -0.00430888
Fe       7.83797660      19.25817269      30.14081540       0.00189845       0.00406031      -0.00085074
Fe       9.14089674      20.58329355      31.68368927       0.00059363       0.00064975       0.00448650
Fe       9.15029206      23.31327686      17.78940969       0.00254962      -0.00153900      -0.00244091
Fe       7.78913642      21.92821763      19.32651542       0.00015284      -0.00063386      -0.00178565
Fe       9.25415695      23.30097686      20.58907144       0.00216732       0.00770393       0.00325469
Fe       7.74788808      21.94067444      21.99122820       0.00173980       0.00157898      -0.00068659
Fe       9.25543380      23.30637077      23.34133450      -0.00281218      -0.00212906      -0.00161510
Fe       7.77214732      21.95185682      24.72363349      -0.00327960      -0.00006078       0.00171248
Fe       9.25603416      23.31261967      26.10365128       0.00276377       0.00112840       0.00054557
Fe       7.78110876      21.95853115      27.45976536       0.00220899      -0.00135902       0.00204618
Fe       9.25138469      23.31103478      28.86406211       0.00349158       0.00458216      -0.00593624
Fe       7.77088081      21.95199503      30.15544066      -0.00093228       0.00089860       0.00231560
Fe       9.14580858      23.31579053      31.66241831       0.00102149      -0.00093603       0.00626367
Fe       9.15096314      26.08146333      17.79091726       0.00268121       0.00344343      -0.00240155
Fe       7.80277164      24.69717941      19.32919640       0.00122242       0.00171885       0.00130187
Fe       9.25367684      26.09356740      20.58790151       0.00157250      -0.00659992      -0.00066715
Fe       7.76921620      24.69528352      22.00130853      -0.00033801      -0.00074345      -0.00316070
Fe       9.25818042      26.09151463      23.34300210       0.00270045      -0.00038690      -0.00382088
Fe       7.76707008      24.70044251      24.72237398       0.00484499       0.00275701       0.00115345
Fe       9.25524837      26.09359130      26.10267140       0.00075059       0.00402719       0.00637784
Fe       7.76711951      24.70464776      27.44375775       0.00494840      -0.00277131       0.00415967
Fe       9.25058590      26.09954159      28.85880688       0.00204865      -0.01027743      -0.00167783
Fe       7.83092159      24.70528097      30.14830470       0.00493395      -0.00068444      -0.00223736
Fe       9.14292252      26.08264038      31.68050047      -0.00264747       0.00104384       0.00300602
Fe       9.17469195      28.82232424      17.78277423      -0.00412662      -0.00464313       0.00196521
Fe       7.78065642      27.45714826      19.31577633       0.00186986      -0.00014160       0.00106357
Fe       9.25671114      28.87020829      20.58306423      -0.00077224       0.00087111      -0.00680569
Fe       7.77222321      27.45941258      21.99764078      -0.00480387       0.00465687      -0.00193307
Fe       9.25067228      28.87071826      23.33240914       0.00251308      -0.00050462       0.01048797
Fe       7.77186074      27.44985314      24.72526009       0.00283384       0.00174537       0.00006552
Fe       9.23807041      28.87038150      26.09985558       0.00436564      -0.00084192      -0.01375098
Fe       7.75091168      27.45139236      27.45341048      -0.00003342       0.00281392      -0.00254319
Fe       9.25078007      28.86617625      28.85785425      -0.01202535       0.01404288       0.01127733
Fe       7.78404604      27.45801545      30.15529514       0.00109859       0.00508269       0.00069008
Fe       9.15097215      28.83054918      31.67100243      -0.00825988       0.00174163       0.00115440
Fe       7.84699049      30.14900721      19.32756373       0.00674433      -0.00820418       0.00721195
Fe       9.15077937      31.71202691      20.61117491       0.00023047      -0.00062586      -0.00163135
Fe       7.75611962      30.16360623      21.97770218      -0.00141376       0.00650561      -0.00467852
Fe       9.16128881      31.66677731      23.32508392       0.00286112      -0.00214405      -0.00184561
Fe       7.78840602      30.18729877      24.70519670      -0.00269235      -0.00639249       0.00115258
Fe       9.12361666      31.71204451      26.06910692      -0.00214335      -0.00071138       0.00216497
Fe       7.76249993      30.16650197      27.44749496      -0.00039215      -0.00413359       0.00645114
Fe       9.15028107      31.68400294      28.82709415      -0.00228406      -0.00012695      -0.00440475
Fe       7.82104622      30.11015918      30.10568743       0.01448807      -0.00719906      -0.01062335
Fe      12.01193167      14.81561082      20.56328127      -0.00085117      -0.00163303       0.00250266
Fe      12.00614175      14.80317428      23.35125414      -0.00246472       0.00117577       0.00475632
Fe      11.97848812      14.81198778      26.12643581       0.00144631       0.00360989       0.00160256
Fe      11.98395917      14.82722725      28.89774316       0.00135846       0.00192617       0.00217003
Fe      11.99430958      17.63910664      17.68331142      -0.00406802      -0.00406569      -0.00185439
Fe      10.64022095      16.32230289      19.18909507       0.00038548      -0.00335194       0.00334035
Fe      12.00424691      17.62646607      20.50979728       0.00386206       0.00316919      -0.00104131
Fe      10.55858227      16.21758548      21.96155902       0.00169956       0.00416274       0.00331832
Fe      12.01380906      17.61819284      23.32412406       0.00005644      -0.00238622       0.00470468
Fe      10.55274745      16.24583495      24.73420305       0.00170648       0.00423918       0.00380382
Fe      12.01503898      17.62328656      26.13574711      -0.00157643       0.00137295      -0.00068743
Fe      10.54115649      16.24985798      27.50706654       0.00174697       0.00306558      -0.00230738
Fe      11.99937260      17.64025573      28.95225848       0.00217086       0.00631770       0.00220901
Fe      10.61960737      16.33211080      30.27085570      -0.00256653       0.00247054       0.00176404
Fe      11.99139291      17.65406055      31.77502055      -0.00272387      -0.00135443       0.00376943
Fe      12.00416429      20.52718625      14.86318938      -0.00230353       0.00118946      -0.00222490
Fe      10.63582832      19.15277370      16.37299475      -0.00140594       0.00177193       0.00054258
Fe      12.01325302      20.46351328      17.67952727       0.00146113       0.00138974       0.00717383
Fe      10.52101738      19.01974984      19.06468123       0.00389659      -0.00023549      -0.00121345
Fe      12.04156921      20.43881799      20.48559448      -0.00257434      -0.00263528      -0.00465440
Fe      10.63263880      19.06016297      21.93715428      -0.00035828       0.00735762      -0.00041048
Fe      12.08063136      20.45711400      23.32162418      -0.00701148      -0.00267865      -0.00032996
Fe      10.63050730      19.06335287      24.72763374       0.00381659      -0.00282965       0.00582072
Fe      12.07894516      20.46242117      26.12725205      -0.00602668      -0.00074785      -0.00080818
Fe      10.64059181      19.07418889      27.51701447      -0.00109520       0.00312868      -0.00429696
Fe      12.03779211      20.45160368      28.96654559       0.00087871       0.00141620       0.00501182
Fe      10.52404360      19.03768122      30.39223250       0.00261708       0.00093593       0.00084844
Fe      12.00430565      20.48490838      31.77713844       0.00504033       0.00544826      -0.01040035
Fe      10.63217901      19.18832130      33.07679921      -0.00088924       0.00149235       0.00031078
Fe      11.99757131      20.54180045      34.61295525       0.00199279       0.00230680       0.00297830
Fe      12.01473374      23.30854903      14.85635591       0.00107799      -0.00130020       0.00470117
Fe      10.57422250      21.91973362      16.29567663       0.00096474       0.00242490       0.00078624
Fe      12.02748649      23.29042367      17.67484596      -0.00140416      -0.00090312      -0.00365218
Fe      10.64055744      21.89227045      19.11242066       0.00621421       0.00023212      -0.00099143
Fe      12.08485019      23.28733448      20.50300141      -0.00258910       0.00094828      -0.00645225
Fe      10.70043975      21.89357380      21.93635210      -0.00291371      -0.00008850      -0.00021344
Fe      12.10938459      23.29043550      23.32110623      -0.00220582       0.00440187       0.00581209
Fe      10.69679792      21.89537897      24.72314894       0.00385476       0.00276168       0.00203406
Fe      12.10653307      23.29384354      26.12727908      -0.00297390       0.00115040      -0.00510537
Fe      10.69819669      21.89805118      27.51474260      -0.00154437       0.00259791      -0.00412631
Fe      12.07974402      23.29691759      28.94681629      -0.00072144      -0.00216880       0.00513142
Fe      10.63936657      21.90681352      30.33692314       0.00533369      -0.00161705      -0.00163470
Fe      12.02000075      23.30456807      31.78018033      -0.00059123      -0.00257059       0.00332281
Fe      10.55780940      21.93304469      33.16427019      -0.00016610      -0.00001890      -0.00373985
Fe      12.00661783      23.31620720      34.58892079       0.00090075      -0.00184369      -0.00070040
Fe      12.01060940      26.09103869      14.83867683       0.00219544       0.00178855      -0.00195359
Fe      10.58494192      24.70420524      16.30464899       0.00471356      -0.00086583      -0.00026941
Fe      12.02879961      26.10689578      17.68064604       0.00003880      -0.00040161      -0.00504442
Fe      10.64440015      24.69654037      19.12046326      -0.00081386       0.00038256       0.00026513
Fe      12.08732604      26.10878864      20.50406981      -0.00705116      -0.00047379      -0.00254937
Fe      10.70343780      24.69909879      21.93558880      -0.00239006       0.00286538       0.00341150
Fe      12.11047862      26.11266449      23.32122912      -0.00471644      -0.00125091      -0.00338937
Fe      10.70432803      24.70171528      24.72283637       0.00239175      -0.00074449      -0.00216496
Fe      12.10700995      26.11539382      26.12487676      -0.00795865       0.00257293       0.00157278
Fe      10.70046795      24.70493301      27.51357967      -0.00398254       0.00445282      -0.00529340
Fe      12.07900737      26.11788711      28.94412556      -0.00950824       0.00391563       0.00332252
Fe      10.64181908      24.70686189      30.33130325       0.00314858      -0.00067415       0.00264205
Fe      12.01378530      26.10825998      31.78276257      -0.00677193       0.00272124       0.00283444
Fe      10.54278928      24.69676899      33.13980656       0.00003909      -0.00161245      -0.00227834
Fe      11.96629938      26.08955301      34.60103379      -0.00195193      -0.00157096       0.00036874
Fe      11.99767570      28.85732272      14.83916932      -0.00276829       0.00124903      -0.00008209
Fe      10.58482871      27.47333536      16.29262434       0.00134479      -0.00414784       0.00135897
Fe      12.01664313      28.92978845      17.68406774       0.00275072      -0.00420084       0.00673996
Fe      10.64638873      27.50085179      19.11973649      -0.00133159      -0.00057155       0.00086672
Fe      12.04667330      28.95937873      20.48217913      -0.00229730       0.00312022      -0.00214981
Fe      10.70406172      27.50529672      21.93341668       0.00593613      -0.00555886       0.00703197
Fe      12.08552856      28.94500421      23.31650510      -0.00615947       0.00587073      -0.00160621
Fe      10.69956920      27.51056343      24.72076657      -0.00345278      -0.00257346       0.00298203
Fe      12.08101773      28.94818283      26.12388167      -0.00601737      -0.00231107       0.00527930
Fe      10.69684442      27.51197666      27.50774479       0.01060631      -0.01119117      -0.01144253
Fe      12.03220804      28.96721679      28.95707960       0.00245431       0.00107992       0.00033499
Fe      10.63491952      27.50327711      30.33155849       0.00613560       0.00172077       0.00031848
Fe      11.99377263      28.93313702      31.76359007       0.00555685      -0.00348926      -0.00589795
Fe      10.54964501      27.47966867      33.16062174      -0.00299503      -0.00342758      -0.00020022
Fe      11.98059783      28.87100731      34.59223160      -0.00228286      -0.00162033      -0.00388239
Fe      10.65431640      30.22977728      16.37948932      -0.00108649      -0.00447723      -0.00107813
Fe      11.99819537      31.76147980      17.68878248      -0.00121590       0.00245288      -0.00189482
Fe      10.51996530      30.38740558      19.06838260      -0.00145053       0.00069027      -0.00205044
Fe      12.01671118      31.77403162      20.50931657       0.00243664      -0.00702031       0.00340241
Fe      10.64111440      30.33553171      21.92455588       0.00851568      -0.00359001       0.00218374
Fe      12.03042838      31.78418534      23.31330501       0.00236461       0.00247607      -0.00435030
Fe      10.64452633      30.33555562      24.72073516      -0.00477401      -0.00263952      -0.00027654
Fe      12.02580645      31.79216251      26.11686216       0.00056653       0.00266929       0.00354151
Fe      10.62838528      30.34757677      27.49646969       0.00283189      -0.00313404      -0.00033851
Fe      12.00394986      31.77643112      28.92304302       0.00762685      -0.00842480      -0.00312096
Fe      10.51296951      30.38618210      30.37251671      -0.00541405      -0.00147031      -0.00245406
Fe      11.97479653      31.77058495      31.75538668       0.00145095       0.00091127       0.00714506
Fe      10.62951195      30.23822647      33.07327718      -0.00230320      -0.00001550      -0.00266887
Fe      10.63931177      33.09270589      19.20860451       0.00021203       0.00325516       0.00092012
Fe      11.99566456      34.60432117      20.56871980      -0.00076608       0.00365178       0.00093994
Fe      10.56154915      33.16915595      21.95898251      -0.00007953      -0.00385575       0.00403547
Fe      11.98522596      34.61840881      23.32647508      -0.00298959      -0.00204779       0.00208112
Fe      10.57045566      33.12555087      24.70881763       0.00513412      -0.00165889      -0.00257580
Fe      11.97139467      34.62791177      26.09325660      -0.00291295      -0.00085882       0.00070802
Fe      10.55638548      33.17248822      27.48237137       0.00383618      -0.00151438      -0.00127515
Fe      11.98540329      34.60523712      28.87123982       0.00326649      -0.00199548      -0.00288041
Fe      10.62970873      33.08075209      30.24368451       0.00236650       0.00164768      -0.00077674
Fe      14.87693793      11.94898570      20.58526543       0.00241823      -0.00565819      -0.00080326
Fe      14.85860099      11.93850412      23.34863377      -0.00191001      -0.00298779      -0.00344898
Fe      14.83290684      11.93691079      26.13625280       0.00192539      -0.00216747       0.00243304
Fe      14.86154110      11.96330828      28.91156874       0.00261128      -0.00121486       0.00111290
Fe      14.83867011      14.76447453      17.67132666      -0.00026648      -0.00077146      -0.00078883
Fe      13.50790867      13.43671913      19.19020926       0.00006208      -0.00178716       0.00119589
Fe      14.84343728      14.77556109      20.49919372       0.00469872       0.00608657      -0.00053234
Fe      13.42552903      13.36910798      21.95661825      -0.00076669      -0.00548195      -0.00177218
Fe      14.84022581      14.78456260      23.32330585      -0.00008759      -0.00180451       0.00680839
Fe      13.42520651      13.37526249      24.73994356       0.00287543      -0.00124779      -0.00117363
Fe      14.83270913      14.78629657      26.14889192      -0.00045635       0.00432629      -0.00473931
Fe      13.40948330      13.38187965      27.52755932       0.00026496       0.00197241       0.00222575
Fe      14.83057495      14.79617159      28.96664583       0.00816934       0.00703063       0.00277127
Fe      13.49486964      13.46823220      30.28917600      -0.00108320       0.00059107       0.00037344
Fe      14.82735884      14.81986218      31.79393717      -0.00289476       0.00153201       0.00027765
Fe      14.83471498      17.62709138      14.82798623       0.00177081      -0.00180408       0.00133027
Fe      13.48005383      16.27722213      16.33132380       0.00088707      -0.00217564      -0.00434954
Fe      14.82586513      17.60244422      17.65048054      -0.00074466       0.00250883       0.00193250
Fe      13.35675741      16.13870821      19.04258751      -0.00064815      -0.00045297       0.00199732
Fe      14.82967514      17.59163189      20.46488432      -0.00074201      -0.00448676      -0.00042944
Fe      13.42445493      16.20260214      21.91031533       0.00087878       0.00264529       0.00195152
Fe      14.85731328      17.61561098      23.31444845       0.00485052      -0.00098535      -0.00251953
Fe      13.42562398      16.20454085      24.73471348      -0.00181636       0.00323427       0.00048953
Fe      14.85453596      17.62242424      26.14450369       0.00441852      -0.00112803       0.00284565
Fe      13.41913299      16.21110093      27.55270850      -0.00115367       0.00380519       0.00185532
Fe      14.82241838      17.61101251      28.98976530       0.00201947      -0.00098835      -0.00038289
Fe      13.34496096      16.16702603      30.41186804       0.00188155      -0.00026505       0.00120062
Fe      14.82068149      17.63839814      31.80088399       0.00417159       0.00291722      -0.00373127
Fe      13.48235907      16.31995858      33.14191346       0.00044231      -0.00533830       0.00072598
Fe      14.83866857      17.66128774      34.62903094      -0.00014070      -0.00240684       0.00136228
Fe      14.87044002      20.52455151      11.98312054      -0.00045233       0.00210544      -0.00085580
Fe      13.50253934      19.14396246      13.49772898      -0.00002472      -0.00092134       0.00042678
Fe      14.83976963      20.45613082      14.82538343       0.00598839       0.00029174       0.00596531
Fe      13.35302732      19.00059275      16.19157794      -0.00019562       0.00007544      -0.00169521
Fe      14.82933233      20.42315517      17.63774944       0.00126408       0.00153690       0.00108928
Fe      13.42772128      19.02110435      19.06867889      -0.00510802      -0.00388618      -0.00223689
Fe      14.86462699      20.43790253      20.47831537       0.00076735       0.00046446      -0.00284373
Fe      13.45787141      19.03140469      21.90334555      -0.00084091      -0.00298876      -0.00200746
Fe      14.88234091      20.44318053      23.30923082       0.00268398      -0.00150818      -0.00169619
Fe      13.46355382      19.03259981      24.72685932      -0.00812384      -0.00249070      -0.00203945
Fe      14.87991868      20.44804974      26.14118677       0.00415520       0.00082279       0.00468553
Fe      13.45235684      19.04197117      27.55097680       0.00709121      -0.00112822       0.00083404
Fe      14.85942425      20.45339391      28.97127554       0.00409645      -0.00055570       0.00470323
Fe      13.42113785      19.04189618      30.38586117      -0.00472865      -0.00173314       0.00102999
Fe      14.82639800      20.44566576      31.81401383      -0.00009441      -0.00071032       0.00158757
Fe      13.34777276      19.03100845      33.26429036       0.00241191       0.00220105      -0.00124944
Fe      14.83628413      20.48780377      34.63028523       0.00643869       0.00069670      -0.00144946
Fe      13.52855306      19.16210254      35.96555006       0.00302847       0.00255412       0.00131114
Fe      14.86317295      20.55257699      37.47718228      -0.00059031       0.00253406       0.00440222
Fe      14.84422289      23.30622673      11.98240421       0.00312494       0.00110580       0.00047546
Fe      13.42701421      21.89988398      13.41171417       0.00028285       0.00032759      -0.00122970
Fe      14.83649935      23.28657577      14.82289212       0.00229605       0.00566519       0.00166297
Fe      13.42886060      21.87209524      16.25090562       0.00198660      -0.00143283       0.00520715
Fe      14.86115985      23.27917507      17.66000262       0.00288934      -0.00253908      -0.00244409
Fe      13.46131797      21.86441167      19.07824609      -0.00142956      -0.00298617      -0.00169117
Fe      14.88543592      23.27821288      20.48050789       0.00101724      -0.00021312       0.00140462
Fe      13.48426064      21.85871545      21.89554596      -0.00152450      -0.00288077      -0.00141136
Fe      14.90295493      23.28088161      23.30762752       0.00665310       0.00269061       0.00131883
Fe      13.49969843      21.86826437      24.72448036       0.00095221      -0.00203980      -0.00018066
Fe      14.90043815      23.28493180      26.14073695       0.00720599       0.00383338      -0.00277902
Fe      13.48040987      21.86728690      27.55368592      -0.00255916      -0.00102917       0.00236228
Fe      14.88029049      23.29019616      28.96864073      -0.00130490       0.00097465      -0.00586588
Fe      13.45679809      21.87885703      30.37281971      -0.00569436       0.00173774       0.00335599
Fe      14.85234475      23.29552546      31.79115987       0.00330449       0.00082329       0.00712630
Fe      13.41878704      21.88520371      33.20672081      -0.00085596       0.00000992      -0.00313302
Fe      14.83112787      23.30248635      34.63001876       0.00227325       0.00395747      -0.00192068
Fe      13.41568168      21.93687772      36.05093488      -0.00011992      -0.00102849       0.00431251
Fe      14.84013338      23.32545682      37.48633949       0.00032970       0.00340065       0.00021526
Fe      14.83274855      26.08730913      11.99018148      -0.00169189       0.00396179       0.00055178
Fe      13.42736592      24.71151149      13.41574185      -0.00039605       0.00087480       0.00287007
Fe      14.84977456      26.10575180      14.83713284       0.00335766      -0.00290958       0.00423859
Fe      13.43131750      24.70227282      16.25257153      -0.00128214      -0.00021997       0.00487872
Fe      14.86378063      26.11664906      17.66250979       0.00155296       0.00350263      -0.00247331
Fe      13.47135739      24.69834561      19.07771209      -0.00598014      -0.00163163      -0.00422959
Fe      14.88750307      26.12210969      20.48135479       0.00151685      -0.00104376       0.00224621
Fe      13.50358516      24.70056685      21.90135144       0.00131568       0.00172400      -0.00219123
Fe      14.90359689      26.12661853      23.30700724       0.00999174      -0.00167964       0.00439054
Fe      13.51513642      24.70457036      24.72416895      -0.00059427      -0.00230593      -0.00153510
Fe      14.90067508      26.13030585      26.14047937       0.00752877      -0.00372607      -0.00735755
Fe      13.49857471      24.70749260      27.54687419       0.00345156       0.00177361       0.00057247
Fe      14.87819727      26.13122515      28.96701525       0.00467868       0.00318341      -0.00096422
Fe      13.46186194      24.71007503      30.37296830      -0.00385707       0.00085476       0.00193560
Fe      14.84904374      26.13108871      31.78879228       0.00467931       0.00220729       0.00020133
Fe      13.42357912      24.71306134      33.20335069      -0.00491273       0.00279656      -0.00097332
Fe      14.81979168      26.12626193      34.62760538       0.00303526       0.00012434      -0.00177766
Fe      13.40915535      24.70982428      36.04361518       0.00159743       0.00268362      -0.00302792
Fe      14.83070000      26.10355931      37.47546458       0.00098765       0.00218211      -0.00150160
Fe      14.84503071      28.84526703      11.98767529      -0.00172279       0.00065699      -0.00283217
Fe      13.44887323      27.48903691      13.44279853      -0.00306378      -0.00417517      -0.00315715
Fe      14.85280089      28.93418027      14.83899952       0.00679046      -0.00277007       0.00651125
Fe      13.42702746      27.52122160      16.25341925      -0.00085693       0.00212225      -0.00005563
Fe      14.83260477      28.97264522      17.64085669       0.00175859      -0.00069148      -0.00337717
Fe      13.46591931      27.53239669      19.08090837       0.00348436       0.00068009      -0.00006644
Fe      14.86958761      28.96361611      20.47799405       0.00404320       0.00104454      -0.00254989
Fe      13.48776634      27.54368598      21.89480263      -0.00552947      -0.00295515      -0.00308167
Fe      14.88729077      28.96569382      23.30711578       0.00364956      -0.00467734      -0.00098260
Fe      13.50132072      27.54137453      24.72278319       0.00831734       0.00239913      -0.00057739
Fe      14.88288736      28.96835441      26.13758446       0.00342027       0.00037118      -0.00170736
Fe      13.48013143      27.54938354      27.55079074      -0.00651129       0.00071611       0.00160049
Fe      14.85630803      28.97156461      28.96765429       0.00506850      -0.00076599      -0.00071594
Fe      13.44977350      27.54168380      30.36808345      -0.00124810       0.00032644       0.00357583
Fe      14.81315496      28.98147006      31.80588412      -0.00147311      -0.00467172      -0.00017307
Fe      13.40608374      27.53009375      33.20179577      -0.00195089      -0.00390418      -0.00388180
Fe      14.81335900      28.94677652      34.62144247       0.00656175      -0.00181363      -0.00667025
Fe      13.38974703      27.49353619      36.04528664      -0.00220145       0.00157548       0.00299913
Fe      14.83969109      28.88587712      37.45734823       0.00019008      -0.00292419       0.00303588
Fe      13.51006732      30.21358602      13.48833532      -0.00206706      -0.00008644      -0.00206406
Fe      14.84830118      31.75681324      14.82632308       0.00000843       0.00466661      -0.00046242
Fe      13.35048375      30.39298941      16.18714191      -0.00189247       0.00085531       0.00165864
Fe      14.83074326      31.79445745      17.65350304       0.00079191      -0.00436112       0.00111141
Fe      13.43218005      30.37849168      19.06861219      -0.00171431       0.00187293      -0.00169748
Fe      14.83159941      31.81725202      20.46219930      -0.00044669       0.00170510      -0.00100628
Fe      13.46710852      30.37055738      21.89879464      -0.00339151       0.00184389      -0.00098710
Fe      14.86230750      31.79757158      23.30696674       0.00265713       0.00610818      -0.00054003
Fe      13.46964675      30.37765006      24.72011383      -0.00320903       0.00265389      -0.00046052
Fe      14.85658525      31.80143713      26.13346347       0.00669960      -0.00057718      -0.00098754
Fe      13.45630975      30.37625015      27.54053511      -0.00111384       0.00195020       0.00159388
Fe      14.81694778      31.82352645      28.97794898      -0.00066602       0.00153935      -0.00148783
Fe      13.41365702      30.38536378      30.37511909      -0.00308636       0.00001895       0.00387018
Fe      14.80683940      31.80665930      31.79170324       0.00585271      -0.00507186      -0.00322217
Fe      13.32870108      30.39627528      33.24395919       0.00221064      -0.00024683       0.00135729
Fe      14.80466383      31.76029403      34.59374117       0.00568827       0.00703917       0.00466726
Fe      13.47458720      30.26921041      35.95207908       0.00155494      -0.00095791      -0.00046207
Fe      13.49100737      33.11672863      16.33518681       0.00366071      -0.00208174      -0.00331625
Fe      14.83601925      34.63165557      17.66465586       0.00093926       0.00122160      -0.00268672
Fe      13.34896996      33.26649784      19.04061408      -0.00178126       0.00182389      -0.00361092
Fe      14.83689706      34.63765729      20.48911772       0.00653206      -0.00341191       0.00140502
Fe      13.42589064      33.21665640      21.90766074      -0.00040713      -0.00386136       0.00096206