2012
Lattice="49.440000000000005 0.0 0.0 0.0 49.440000000000005 0.0 0.0 0.0 49.440000000000005" Properties=species:S:1:pos:R:3:forces:R:3 energy=-16335.771484375 free_energy=-16335.771484375 stress="2.0960720341579036e-06 -1.6784323306529596e-05 1.695098231502782e-05 -1.6784323306529596e-05 -2.8127258977223104e-07 2.513202930905521e-07 1.695098231502782e-05 2.513202930905521e-07 1.4844835507440848e-05" pbc="T T T"
Fe      31.02801577      24.65803951       9.34089413      -0.00138298       0.00209691       0.00422196
Fe      33.21094055      25.04594027      10.93933638      -0.00024274       0.00197302       0.00241336
Fe      35.42507209      25.38469297      12.59605791      -0.00205555       0.00428568       0.00243657
Fe      37.58510321      25.64912090      14.23481725      -0.00069605       0.00284224       0.00156638
Fe      30.86814289      22.00845121       9.99167172       0.00095323       0.00101639       0.00098725
Fe      32.94118299      23.12590338       9.52245434       0.00290854      -0.00139749      -0.00044590
Fe      33.04054408      22.35571250      11.74641708       0.00552519       0.00203295       0.00421418
Fe      35.08918685      23.45292301      11.11141169       0.00160964       0.00458745       0.00027926
Fe      35.21686901      22.69449236      13.39276577      -0.00291761       0.00049313       0.00344034
Fe      37.19382901      23.75789406      12.69506042       0.00332324       0.00100764      -0.00274406
Fe      37.52492602      23.02606660      14.96156232       0.00009637      -0.00001901       0.00189782
Fe      30.74728747      19.31756950      10.70437541       0.00204839       0.00159754      -0.00253226
Fe      32.82687456      20.52162474      10.19809893       0.00405134       0.00188538       0.00057296
Fe      32.91327000      19.70549840      12.46175729       0.00319739       0.00164472      -0.00196307
Fe      34.99120541      20.84346713      11.77855575       0.00142193       0.00158740      -0.00156938
Fe      35.09963493      20.04064720      14.09375387      -0.00002123       0.00459626      -0.00227600
Fe      37.09259180      21.18678100      13.37381729       0.00273265       0.00118342       0.00085115
Fe      37.40773474      20.33984537      15.67005679       0.00062733       0.00239994      -0.00116236
Fe      30.68729051      16.69926969      11.44017073      -0.00189337      -0.00097501       0.00176419
Fe      32.73145674      17.96766085      10.88839203       0.00399944       0.00165725      -0.00245790
Fe      32.85540981      16.96569149      13.07111996       0.00060845      -0.00052353      -0.00010701
Fe      34.85312548      18.27982861      12.46797083       0.00095471      -0.00033579      -0.00167905
Fe      35.07010864      17.30384550      14.72436804      -0.00051253      -0.00008306      -0.00001603
Fe      36.96956386      18.61412291      14.05546091       0.00097437       0.00111457      -0.00231221
Fe      37.23795636      17.70131144      16.33071201      -0.00190736       0.00186756      -0.00037579
Fe      27.27810628      30.43855677       8.46538275       0.00155272      -0.00185347      -0.00042333
Fe      29.49651834      30.82930572      10.01344812       0.00296149      -0.00423568       0.00289337
Fe      31.71410901      31.16599912      11.66238438       0.00243959       0.00211852       0.00176831
Fe      33.95322561      31.50350758      13.33307955      -0.00187939       0.00328757       0.00108038
Fe      36.17628120      31.83861993      15.00037574      -0.00271663       0.00176341      -0.00095330
Fe      38.30090190      32.11205953      16.70504505       0.00019686       0.00481522       0.00013222
Fe      24.89383127      27.34584551       7.49932784       0.00519983       0.00035272       0.00089419
Fe      27.11441646      27.77053840       9.03688090       0.00088364      -0.00106305      -0.00071639
Fe      29.18847649      28.90489491       8.57472696      -0.00021329       0.00023132      -0.00233884
Fe      29.32951192      28.09203005      10.76627096       0.00070272      -0.00095880       0.00005040
Fe      31.36247311      29.24065872      10.16970359       0.00322829       0.00118811       0.00304683
Fe      31.56303883      28.45345307      12.42189784       0.00274886      -0.00001161       0.00363112
Fe      33.59221503      29.59579623      11.83710351       0.00171459       0.00321594       0.00033709
Fe      33.80215014      28.79366996      14.09347419       0.00395972       0.00163606       0.00068070
Fe      35.83134664      29.92033455      13.50911404      -0.00278482       0.00250420       0.00041227
Fe      36.03213502      29.11080520      15.77132223      -0.00311550      -0.00011276      -0.00085010
Fe      37.98719401      30.23895623      15.14848745       0.00149922       0.00398242      -0.00305338
Fe      38.31658871      29.48196099      17.40995145       0.00119519       0.00040099       0.00044149
Fe      40.43576604      29.71497981      19.12084573      -0.00122142       0.00312202       0.00217152
Fe      24.75752363      24.68143729       8.09359925       0.00508119       0.00148256       0.00199233
Fe      26.82880016      25.84410078       7.61892188       0.00143052       0.00216372      -0.00059046
Fe      26.98840313      25.05547273       9.81849843       0.00054306       0.00019223      -0.00384421
Fe      29.06002663      26.24752452       9.11017320       0.00421037      -0.00024696      -0.00021689
Fe      29.24285654      25.39282641      11.39847321       0.00096702       0.00059306       0.00129220
Fe      31.30917551      26.63916619      10.75421373      -0.00022969       0.00324086       0.00257276
Fe      31.47994411      25.76202023      13.07465120       0.00137500       0.00185889      -0.00186694
Fe      33.54659105      27.00275670      12.43254251      -0.00058153       0.00191585      -0.00156695
Fe      33.72708508      26.10501603      14.75352506       0.00046429       0.00305584       0.00133394
Fe      35.79701717      27.32165217      14.10669535      -0.00006913       0.00386760       0.00276687
Fe      35.97741812      26.41881657      16.42837919      -0.00047765       0.00335846       0.00224578
Fe      38.02300024      27.61094420      15.80406175       0.00169260       0.00455770      -0.00084070
Fe      38.13492074      26.75447368      18.14191617       0.00021747       0.00100790      -0.00179588
Fe      40.10001039      27.87180823      17.52780435      -0.00042586       0.00386947       0.00196107
Fe      40.42699325      27.07890182      19.79006382      -0.00048845       0.00089935      -0.00073010
Fe      24.64192185      21.99157662       8.79696613      -0.00172673      -0.00268286      -0.00077512
Fe      26.71622641      23.21410785       8.28775159       0.00119083      -0.00666933      -0.00055201
Fe      26.85254152      22.34337472      10.51415933      -0.00056761      -0.00226263       0.00053134
Fe      28.90417616      23.52025912       9.78056118      -0.00168065      -0.00020676       0.00124772
Fe      29.09492867      22.66856295      12.10894870       0.00205641       0.00050510      -0.00092520
Fe      31.13925119      23.87755874      11.56831845      -0.00012771       0.00249139       0.00303990
Fe      31.31735278      23.03275818      13.83961175       0.00016235       0.00162131      -0.00022232
Fe      33.36263387      24.24867022      13.24097719       0.00069551       0.00068801       0.00122636
Fe      33.57397286      23.37768791      15.52731341       0.00039453       0.00015206       0.00238130
Fe      35.60242172      24.55924684      14.90680975       0.00044205       0.00130502       0.00158354
Fe      35.87171794      23.70290935      17.17042407       0.00213760       0.00058761       0.00220365
Fe      37.95743567      24.90100663      16.53982148       0.00059791       0.00142993       0.00039986
Fe      38.03732816      24.04874111      18.86592185      -0.00081335      -0.00087336      -0.00265372
Fe      40.00869629      25.24108301      18.21541069      -0.00066039       0.00054116       0.00231881
Fe      40.31425557      24.37550275      20.49996175      -0.00282752       0.00154652       0.00259005
Fe      24.52562279      19.27425043       9.51190023      -0.00296696       0.00094419       0.00081372
Fe      26.58246725      20.50237404       8.99637848      -0.00146394      -0.00136981      -0.00081308
Fe      26.73410517      19.62432269      11.22951125       0.00004866       0.00080002       0.00089493
Fe      28.76114229      20.79619935      10.49488300       0.00298354      -0.00094184      -0.00134370
Fe      28.97467607      19.93906988      12.82882263      -0.00138151       0.00103217      -0.00058474
Fe      30.98728407      21.16725539      12.28011999       0.00036427       0.00010304      -0.00111209
Fe      31.19630806      20.29186091      14.56492974      -0.00092765       0.00116234       0.00049909
Fe      33.20705778      21.52461268      14.00760546       0.00486534       0.00172620      -0.00307404
Fe      33.45415488      20.63703063      16.25102466      -0.00156637       0.00196249       0.00549030
Fe      35.49636499      21.85721777      15.65034237       0.00048124       0.00109843       0.00179420
Fe      35.75233444      20.97532064      17.88942248      -0.00073629       0.00292167      -0.00107757
Fe      37.84773520      22.18390907      17.27702138      -0.00119203       0.00091611      -0.00144416
Fe      37.91666555      21.33409121      19.58114298      -0.00091950      -0.00399646      -0.00080160
Fe      39.89826061      22.53150094      18.94029081       0.00148050      -0.00182146      -0.00168071
Fe      40.19620024      21.66628235      21.21726343      -0.00091533       0.00065625      -0.00136911
Fe      24.40824315      16.57369862      10.22881302      -0.00038255      -0.00010675       0.00187087
Fe      26.47853919      17.78749649       9.71764371      -0.00332655      -0.00042824      -0.00058888
Fe      26.63237947      16.91682304      11.96167608      -0.00019824      -0.00036865      -0.00460608
Fe      28.66533366      18.06926893      11.21822718      -0.00149829       0.00269393      -0.00124658
Fe      28.88401086      17.21499401      13.55424033      -0.00097752       0.00130310      -0.00021017
Fe      30.89930117      18.45616040      13.00311822       0.00110532      -0.00143772      -0.00042550
Fe      31.11944536      17.53456725      15.24542670       0.00103339       0.00107176      -0.00061097
Fe      33.12122602      18.77355279      14.68926458      -0.00086340      -0.00164006       0.00010267
Fe      33.36799511      17.87857421      16.92401844       0.00227227       0.00174115      -0.00292667
Fe      35.36544244      19.14016353      16.33515217      -0.00028224      -0.00018008       0.00158796
Fe      35.61925626      18.24676915      18.58249487       0.00087898      -0.00224723       0.00118973
Fe      37.71866323      19.45695298      17.97246804      -0.00071206       0.00021268       0.00264480
Fe      37.77383408      18.62703433      20.28116666      -0.00412136       0.00135066      -0.00434124
Fe      39.77104538      19.82409378      19.64279580      -0.00025298      -0.00216627      -0.00032757
Fe      40.07061659      18.96245404      21.92447461      -0.00119115       0.00053163      -0.00047091
Fe      24.30731253      13.95958880      11.02954441      -0.00047409      -0.00153579       0.00051272
Fe      26.36379531      15.16126793      10.43484919      -0.00067650      -0.00057587      -0.00062305
Fe      26.51059844      14.16530476      12.62182795       0.00135858       0.00062654      -0.00367963
Fe      28.58397601      15.36520787      11.97731152      -0.00024904      -0.00038335      -0.00160041
Fe      28.73728879      14.55804391      14.33059347      -0.00261685       0.00190675      -0.00115921
Fe      30.82781693      15.64908299      13.65010419       0.00030651      -0.00016002       0.00102387
Fe      30.97117317      14.87561266      15.99988416       0.00167621      -0.00025971      -0.00115332
Fe      33.06544357      15.97502827      15.33999759       0.00029344      -0.00017413      -0.00263186
Fe      33.21172399      15.21723840      17.67221729       0.00058444      -0.00118306      -0.00068725
Fe      35.31721963      16.33574476      17.00227099       0.00049111      -0.00020084       0.00083134
Fe      35.44133918      15.58409354      19.33786595      -0.00020965       0.00108407      -0.00233731
Fe      37.54449199      16.73596551      18.66763316      -0.00090177      -0.00424228      -0.00289147
Fe      37.72910128      15.88007816      20.99188823       0.00093822      -0.00207024      -0.00077602
Fe      39.62910019      17.21035044      20.29000600      -0.00155784      -0.00500481      -0.00042384
Fe      39.85985072      16.35304347      22.55930313       0.00096378      -0.00157765       0.00574232
Fe      26.44227721      11.56590906      13.43384487      -0.00019851      -0.00395033      -0.00081471
Fe      28.47785275      12.79098375      12.81514773       0.00033596      -0.00046909      -0.00017127
Fe      28.66069033      11.80529503      15.01833158       0.00177719      -0.00029018      -0.00023941
Fe      30.65649990      13.10211528      14.42282382       0.00313171       0.00145292       0.00011684
Fe      30.88937223      12.14130554      16.67736552       0.00142317      -0.00148365      -0.00078075
Fe      32.89054159      13.43273051      16.09742254       0.00260007      -0.00217684      -0.00035425
Fe      33.13046809      12.47649342      18.34617209      -0.00119121      -0.00190862      -0.00089311
Fe      35.13292958      13.78622585      17.76689521      -0.00166586      -0.00138202      -0.00075991
Fe      35.34392470      12.80322483      20.01742610      -0.00205769      -0.00244667       0.00107899
Fe      37.27766086      14.13593285      19.38975534      -0.00120866      -0.00318214      -0.00069079
Fe      37.47955454      13.25061822      21.67576619      -0.00108548      -0.00133736      -0.00023777
Fe      25.63684180      33.87219624       9.93474667       0.00580036      -0.00263418      -0.00048248
Fe      27.84303393      34.23942437      11.49636695      -0.00058353      -0.00297955      -0.00210614
Fe      30.09916526      34.58369518      13.17207517      -0.00235613       0.00205262      -0.00134781
Fe      32.33141535      34.94241254      14.80156154       0.00081837       0.00015865       0.00291440
Fe      34.55575292      35.27896234      16.46629959      -0.00207287       0.00067320      -0.00000341
Fe      36.68034166      35.55332141      18.17011979       0.00212242      -0.00046693       0.00080597
Fe      23.31454975      30.74642486       8.88510091       0.00127377       0.00024869       0.00074729
Fe      25.51295515      31.19712329      10.40869576       0.00036919      -0.00430506       0.00486800
Fe      27.60028259      32.39068932       9.92223655       0.00241580      -0.00049249      -0.00014453
Fe      27.76350388      31.50575991      12.16267263      -0.00449902      -0.00054295       0.00151739
Fe      29.80266773      32.75210957      11.55581124       0.00153740      -0.00025570      -0.00158732
Fe      30.00280756      31.84865203      13.82686493      -0.00069795      -0.00142094       0.00180725
Fe      32.03499105      33.06813347      13.21231493      -0.00227321       0.00436782       0.00053613
Fe      32.23688018      32.18654735      15.49376705      -0.00330192       0.00310105       0.00225523
Fe      34.26215717      33.39939993      14.88901613      -0.00135106       0.00108185       0.00242832
Fe      34.46687076      32.52394543      17.16991488       0.00082400      -0.00090487       0.00313044
Fe      36.45935231      33.72761466      16.54512139      -0.00008543       0.00028022      -0.00141462
Fe      36.77388672      32.90456998      18.82421898      -0.00189111       0.00192738       0.00145172
Fe      38.88089185      33.15766775      20.56516788      -0.00182711       0.00162058       0.00048557
Fe      20.85887639      27.67372073       7.99847578       0.00491215      -0.00248073      -0.00141719
Fe      23.12498550      28.09894982       9.44113217       0.00267897       0.00094982       0.00492535
Fe      25.22034908      29.26293714       8.93238833       0.00284425      -0.00154021       0.00067936
Fe      25.37899677      28.43256730      11.20105168       0.00538077       0.00033164      -0.00221519
Fe      27.42689729      29.63213277      10.64459382      -0.00030099       0.00044799       0.00396249
Fe      27.62610468      28.77012617      12.89104767       0.00212041       0.00032443      -0.00122218
Fe      29.66753303      29.98639868      12.29044721      -0.00177202      -0.00115734       0.00055784
Fe      29.87034782      29.11228952      14.55685720       0.00057453      -0.00019648       0.00065450
Fe      31.90308246      30.32917421      13.95309133       0.00281034       0.00274217       0.00387457
Fe      32.10886345      29.45262569      16.22792209       0.00062750      -0.00196586       0.00267783
Fe      34.13588841      30.66365681      15.62592634       0.00245123      -0.00018602       0.00085343
Fe      34.34385205      29.79084370      17.90845135      -0.00098487       0.00246827      -0.00271675
Fe      36.35339637      30.98776133      17.31325033      -0.00276638       0.00263694       0.00044875
Fe      36.60366089      30.14271311      19.58498524      -0.00226992      -0.00007613       0.00036954
Fe      38.63124486      31.32223313      18.96583980       0.00067939       0.00096039      -0.00104033
Fe      38.92502812      30.49599073      21.24536710      -0.00121244       0.00058778      -0.00094331
Fe      40.97198092      30.74373758      23.00932555      -0.00195095       0.00243491      -0.00292463
Fe      20.73639209      25.02041913       8.61619064       0.00249340       0.00345176       0.00083746
Fe      22.79658348      26.15898703       7.97506471       0.00199379      -0.00157156       0.00171718
Fe      23.01463353      25.34507170      10.23797322      -0.00312649       0.00297683       0.00286886
Fe      25.05351395      26.55302977       9.68305048      -0.00051481       0.00175592      -0.00007093
Fe      25.25928181      25.70029855      11.93210091       0.00412126      -0.00287949       0.00218512
Fe      27.29880130      26.91109411      11.33582888       0.00096450       0.00009097      -0.00050264
Fe      27.50774210      26.04269332      13.60303054      -0.00022712       0.00062788      -0.00112360
Fe      29.54338151      27.24211536      13.00237531      -0.00081935       0.00111606      -0.00074473
Fe      29.75011480      26.38246541      15.26995606       0.00223838       0.00260333      -0.00155688
Fe      31.78408359      27.59150841      14.67250709       0.00210131      -0.00233184       0.00299168
Fe      31.99449913      26.72449704      16.94501320      -0.00294610      -0.00023302       0.00272350
Fe      34.02526777      27.92419784      16.34912585       0.00158933       0.00153456      -0.00250511
Fe      34.22984320      27.06656112      18.62328819       0.00432217       0.00009956      -0.00080060
Fe      36.26060084      28.27596270      18.02912208      -0.00122938       0.00136799      -0.00066871
Fe      36.46961016      27.40696903      20.30622493      -0.00241389       0.00093190      -0.00028262
Fe      38.48279567      28.59893118      19.71738387       0.00239237       0.00201669      -0.00329943
Fe      38.73023377      27.73921014      21.98198415       0.00210419       0.00116813      -0.00071783
Fe      40.78530676      28.89228702      21.42135434       0.00096376       0.00097090      -0.00095921
Fe      40.90781029      28.05045500      23.71736743      -0.00105500       0.00227010       0.00154708
Fe      20.61680522      22.28384637       9.32880019       0.00026182       0.00371132       0.00092688
Fe      22.65787993      23.48329074       8.65993709       0.00032195       0.00130965       0.00150982
Fe      22.89503553      22.62793216      10.94653292       0.00173407       0.00119024      -0.00001607
Fe      24.92907576      23.83980000      10.37086858       0.00218780       0.00088381       0.00123165
Fe      25.14177786      22.97788139      12.64103432       0.00196397       0.00123874       0.00156945
Fe      27.19074612      24.19071079      12.04956599      -0.00126488      -0.00118631      -0.00025955
Fe      27.39126549      23.32228244      14.31415109       0.00168169      -0.00201365      -0.00095408
Fe      29.42572372      24.53633665      13.69249626       0.00479876      -0.00254075      -0.00149852
Fe      29.63000110      23.66544707      15.98069467       0.00043033       0.00310308      -0.00085110
Fe      31.66946071      24.88858664      15.37874638       0.00177885       0.00229631       0.00124849
Fe      31.87960764      24.00917640      17.66077531       0.00036028      -0.00179164       0.00121805
Fe      33.92654312      25.22255034      17.05401182       0.00072034       0.00138387       0.00097658
Fe      34.11450607      24.34783679      19.33535691       0.00044236       0.00200785       0.00089848
Fe      36.13995920      25.55448506      18.73264068      -0.00206828       0.00315425       0.00017030
Fe      36.35867586      24.68856994      21.01853074      -0.00240438       0.00032131       0.00184376
Fe      38.39374455      25.89137188      20.42536342       0.00136618       0.00182132       0.00022959
Fe      38.62204570      25.02509507      22.69306514      -0.00098331      -0.00250131      -0.00255740
Fe      40.66988740      26.23017781      22.09981000      -0.00025924      -0.00020963      -0.00051264
Fe      40.86063206      25.38604890      24.41542497      -0.00265395      -0.00231539      -0.00247791
Fe      20.49097436      19.58308903      10.00276676       0.00035840      -0.00306054       0.00093552
Fe      22.56239949      20.78119938       9.37336070      -0.00072087       0.00114594      -0.00019620
Fe      22.77782716      19.91549500      11.65988150       0.00091442       0.00190064       0.00244989
Fe      24.80918675      21.12665945      11.07875899      -0.00071150      -0.00322310       0.00091552
Fe      25.02333636      20.25947539      13.35639089       0.00077741       0.00078471       0.00215536
Fe      27.06449337      21.46847989      12.76047536       0.00265936      -0.00058328       0.00353224
Fe      27.27212772      20.59695858      15.03147766       0.00150998       0.00288791       0.00048050
Fe      29.29362131      21.80579096      14.41631541      -0.00261983      -0.00133557      -0.00001896
Fe      29.51041443      20.93457728      16.70058389       0.00207372      -0.00271935       0.00156207
Fe      31.53579430      22.15514904      16.11836493       0.00105431       0.00027085       0.00117726
Fe      31.76044539      21.27821987      18.38101899      -0.00080977       0.00025529      -0.00149721
Fe      33.80622743      22.49497524      17.78707830      -0.00140774      -0.00082696      -0.00037252
Fe      33.99558351      21.62464312      20.05311464      -0.00342212       0.00325188       0.00138731
Fe      36.02682406      22.83724827      19.45437434      -0.00026981      -0.00113219      -0.00044410
Fe      36.24033775      21.97269329      21.73446901      -0.00015678      -0.00018205       0.00144251
Fe      38.28039601      23.18100571      21.14013648      -0.00125157       0.00412490       0.00115201
Fe      38.50656016      22.31664770      23.40825950      -0.00045322      -0.00074638      -0.00131659
Fe      40.54725121      23.52422095      22.81314251      -0.00470297      -0.00181435      -0.00128749
Fe      40.74253874      22.67091295      25.12629765      -0.00046188       0.00037822      -0.00215892
Fe      20.37364187      16.88058451      10.71702532       0.00006822      -0.00213246      -0.00013396
Fe      22.44689236      18.07342073      10.09932590       0.00172851      -0.00185990       0.00281790
Fe      22.65853713      17.20368373      12.38229845       0.00131286      -0.00258426       0.00289179
Fe      24.69401242      18.41460504      11.79875728      -0.00086461      -0.00201266      -0.00089760
Fe      24.90304490      17.54187511      14.08117209       0.00224550      -0.00180927      -0.00115123
Fe      26.95242279      18.74746971      13.48282627       0.00209178       0.00331185      -0.00170450
Fe      27.15065005      17.87893738      15.75300230      -0.00110007       0.00057847       0.00001768
Fe      29.18625188      19.07123280      15.13337829       0.00016167       0.00064092       0.00008172
Fe      29.39367789      18.21934173      17.42080422      -0.00070736       0.00008868       0.00008368
Fe      31.43015642      19.41046790      16.82425155      -0.00093770       0.00072493       0.00112611
Fe      31.63819304      18.56266667      19.09640656      -0.00043999       0.00030635       0.00250431
Fe      33.68816350      19.75968454      18.49473144      -0.00303113       0.00103080      -0.00011733
Fe      33.87450564      18.90730206      20.77410269      -0.00065118      -0.00388684      -0.00341500
Fe      35.89999930      20.11777601      20.16600333       0.00212087      -0.00272535      -0.00072191
Fe      36.11515604      19.25629334      22.45328143      -0.00384944      -0.00216654      -0.00402297
Fe      38.15750503      20.47178028      21.85298042       0.00200352      -0.00202704      -0.00140888
Fe      38.38577177      19.60172490      24.12316011      -0.00119428      -0.00385747      -0.00112491
Fe      40.42580891      20.81230809      23.52662875      -0.00130981      -0.00032632      -0.00119989
Fe      40.61839146      19.96825653      25.84275714       0.00044283      -0.00212163      -0.00090319
Fe      20.27220945      14.26462101      11.51678894       0.00394832       0.00004265       0.00141846
Fe      22.33161898      15.40033339      10.81617010       0.00215261       0.00060146       0.00169837
Fe      22.52868621      14.42204180      13.04710260       0.00150352       0.00008711       0.00150253
Fe      24.57940950      15.71328478      12.53928598       0.00087940      -0.00167105      -0.00089486
Fe      24.78076360      14.80077497      14.78991839       0.00195989      -0.00006993      -0.00024402
Fe      26.82157866      16.02835518      14.20212510       0.00058067      -0.00168648      -0.00194512
Fe      27.03115280      15.15575705      16.47767823       0.00121476       0.00057394      -0.00437861
Fe      29.06820365      16.37632168      15.86546875      -0.00073184      -0.00319856      -0.00173276
Fe      29.27570286      15.49295818      18.14467002      -0.00033350       0.00208274      -0.00142063
Fe      31.30982599      16.71071911      17.54093505      -0.00106780      -0.00189143      -0.00034026
Fe      31.51436521      15.83664774      19.81580259       0.00098242      -0.00153306      -0.00218040
Fe      33.55149419      17.06235704      19.21243926       0.00080828      -0.00172722       0.00031644
Fe      33.75116882      16.18502541      21.49356173       0.00060571       0.00117321      -0.00204917
Fe      35.78707120      17.39900626      20.89488076      -0.00330565      -0.00139246      -0.00133475
Fe      36.01781793      16.51382312      23.17275427      -0.00128236      -0.00178728       0.00150541
Fe      38.00991107      17.76928448      22.56443412       0.00118238      -0.00300506      -0.00072837
Fe      38.31282556      16.84678722      24.84165744      -0.00953265       0.00287315      -0.00069256
Fe      40.29643449      18.10717489      24.23914277       0.00100574      -0.00155930       0.00186438
Fe      40.42181110      17.38714407      26.59703559       0.00292182      -0.00246434      -0.00504427
Fe      22.43429178      11.81051636      13.89499489       0.00145566      -0.00165729      -0.00074556
Fe      24.48415264      12.96864077      13.22784672       0.00007439      -0.00221529      -0.00224975
Fe      24.67795242      12.01141189      15.46744441      -0.00006794       0.00240841       0.00117622
Fe      26.71190402      13.32213258      14.94085875       0.00173496       0.00060903      -0.00079768
Fe      26.92928797      12.41530303      17.19129016      -0.00097544      -0.00041188       0.00023498
Fe      28.95416670      13.63863410      16.59614718      -0.00062583       0.00031059      -0.00186404
Fe      29.16852388      12.75195820      18.85785428      -0.00328487      -0.00403185      -0.00275549
Fe      31.19069618      13.97579910      18.26147638       0.00072587       0.00070317      -0.00121074
Fe      31.39359870      13.10227635      20.52489545       0.00002423      -0.00189577       0.00232332
Fe      33.42423576      14.32336020      19.93148180      -0.00503347      -0.00106214      -0.00162833
Fe      33.62602670      13.45775542      22.20189242       0.00290720       0.00321410       0.00014464
Fe      35.64708355      14.68957017      21.60668622      -0.00285771      -0.00178734      -0.00275827
Fe      35.94117038      13.74980945      23.87865560      -0.00418059       0.00016827      -0.00225989
Fe      37.96141202      15.02392774      23.27398778       0.00100650      -0.00180606      -0.00117819
Fe      38.01831128      14.15870374      25.57140159      -0.00332570      -0.00578102       0.00303187
Fe      24.57970558       9.43408286      16.36727474       0.00115269       0.00219595      -0.00346518
Fe      26.63988566      10.56928781      15.66803609       0.00345586       0.00003955      -0.00087649
Fe      26.79954761       9.67539761      17.95015791       0.00021872      -0.00024560      -0.00067784
Fe      28.85007517      10.89651696      17.30812480      -0.00087374      -0.00164804      -0.00012022
Fe      29.02855187      10.01126711      19.60817281      -0.00257147       0.00093320      -0.00060670