2777
Lattice="40.794 0.0 0.0 0.0 40.794 0.0 0.0 0.0 40.794" Properties=species:S:1:pos:R:3:momenta:R:3:forces:R:3 energy=-16471.537109375 free_energy=-16471.537109375 stress="0.0 0.0 0.0 0.0 0.0 0.0 0.0 0.0 0.0" pbc="T T T"
Fe       7.50000000      16.09800000      16.09800000       0.00000000       0.00000000       0.00000000       0.77381939       0.48093897       0.34778911
Fe       7.50000000      16.09800000      18.96400000       0.00000000       0.00000000       0.00000000       0.76096743       0.46582526      -1.18589091
K        7.50000000      16.09800000      21.83000000       0.00000000       0.00000000       0.00000000      -5.03898764      -0.93041313      -0.13516240
Fe       7.50000000      16.09800000      24.69600000       0.00000000       0.00000000       0.00000000       1.26214123      -0.67648089       0.78376931
Fe       7.50000000      18.96400000      16.09800000       0.00000000       0.00000000       0.00000000       0.77543962      -1.19201660       0.47933811
Fe       7.50000000      18.96400000      18.96400000       0.00000000       0.00000000       0.00000000       0.29494065       0.03637769      -0.01038531
Fe       7.50000000      18.96400000      21.83000000       0.00000000       0.00000000       0.00000000       0.99448127       0.00697140      -1.11299527
K        7.50000000      18.96400000      24.69600000       0.00000000       0.00000000       0.00000000      -5.05158520       0.00176297       0.93851900
K        7.50000000      21.83000000      16.09800000       0.00000000       0.00000000       0.00000000      -5.05893993      -0.16515002      -0.98063183
Fe       7.50000000      21.83000000      18.96400000       0.00000000       0.00000000       0.00000000       0.87601918      -1.15307999      -0.01363816
K        7.50000000      21.83000000      21.83000000       0.00000000       0.00000000       0.00000000      -4.89753771      -0.09781870      -0.09924373
Fe       7.50000000      21.83000000      24.69600000       0.00000000       0.00000000       0.00000000       1.08702517      -0.06833728       0.70569205
Fe       7.50000000      24.69600000      16.09800000       0.00000000       0.00000000       0.00000000       1.15502548       0.81354022      -0.67392731
K        7.50000000      24.69600000      18.96400000       0.00000000       0.00000000       0.00000000      -5.06063080       0.92235774       0.01261883
Fe       7.50000000      24.69600000      21.83000000       0.00000000       0.00000000       0.00000000       1.09416914       0.70274258      -0.05841645
K        7.50000000      24.69600000      24.69600000       0.00000000       0.00000000       0.00000000      -5.08620405       0.86569691       0.86459017
Fe      10.36600000      13.23200000      16.09800000       0.00000000       0.00000000       0.00000000      -0.53376853       1.43015313       1.38180542
Fe      10.36600000      13.23200000      18.96400000       0.00000000       0.00000000       0.00000000       0.16730613       0.18814777       0.05454673
Fe      10.36600000      13.23200000      21.83000000       0.00000000       0.00000000       0.00000000       0.23258162       0.17324281      -0.07523079
Fe      10.36600000      13.23200000      24.69600000       0.00000000       0.00000000       0.00000000       0.19706520       0.31162092      -0.21217479
Fe      10.36600000      16.09800000      13.23200000       0.00000000       0.00000000       0.00000000       0.41485557      -0.78147352       0.39633173
Fe       8.93300000      14.66500000      14.66500000       0.00000000       0.00000000       0.00000000       0.63130289       0.60196352       0.63303965
Fe      10.36600000      16.09800000      16.09800000       0.00000000       0.00000000       0.00000000      -0.27752194      -0.20365265      -0.36090243
Fe       8.93300000      14.66500000      17.53100000       0.00000000       0.00000000       0.00000000       0.00892757       0.22975974      -0.06168741
Fe      10.36600000      16.09800000      18.96400000       0.00000000       0.00000000       0.00000000      -0.13498105      -0.18663041       0.09950028
Fe       8.93300000      14.66500000      20.39700000       0.00000000       0.00000000       0.00000000       1.21368897      -0.60924178      -1.06399512
Fe      10.36600000      16.09800000      21.83000000       0.00000000       0.00000000       0.00000000       0.72075492      -0.16383535       0.00869310
Fe       8.93300000      14.66500000      23.26300000       0.00000000       0.00000000       0.00000000       1.11594725      -0.55153161       1.14535666
Fe      10.36600000      16.09800000      24.69600000       0.00000000       0.00000000       0.00000000      -0.47905353      -0.12240512       0.30033848
Fe       8.93300000      14.66500000      26.12900000       0.00000000       0.00000000       0.00000000       0.57034481       0.60010463      -0.66558284
Fe      10.36600000      16.09800000      27.56200000       0.00000000       0.00000000       0.00000000       0.35240015      -0.76852047      -0.47441602
K       10.36600000      18.96400000      13.23200000       0.00000000       0.00000000       0.00000000      -2.90399790       0.05241974      -2.85086441
Fe       8.93300000      17.53100000      14.66500000       0.00000000       0.00000000       0.00000000      -0.81199330      -0.91510350       1.35926414
Fe      10.36600000      18.96400000      16.09800000       0.00000000       0.00000000       0.00000000      -0.16383308       0.09100977       0.60137355
Fe       8.93300000      17.53100000      17.53100000       0.00000000       0.00000000       0.00000000      -0.45487970      -0.05625861      -0.05869566
Fe      10.36600000      18.96400000      18.96400000       0.00000000       0.00000000       0.00000000       0.04353205       0.04348832       0.03697862
Fe       8.93300000      17.53100000      20.39700000       0.00000000       0.00000000       0.00000000       0.65615749       0.91503119      -0.89516830
Fe      10.36600000      18.96400000      21.83000000       0.00000000       0.00000000       0.00000000      -0.04575096       0.01613181       0.06189183
Fe       8.93300000      17.53100000      23.26300000       0.00000000       0.00000000       0.00000000       1.66829813      -0.04387821       0.07856934
Fe      10.36600000      18.96400000      24.69600000       0.00000000       0.00000000       0.00000000       0.65341425      -0.00132700      -0.67585170
Fe       8.93300000      17.53100000      26.12900000       0.00000000       0.00000000       0.00000000       0.41070932      -2.11283207      -0.64443505
K       10.36600000      18.96400000      27.56200000       0.00000000       0.00000000       0.00000000      -2.75725126       0.03966626       2.95452285
Fe      10.36600000      21.83000000      13.23200000       0.00000000       0.00000000       0.00000000       0.22838449       0.98252308       0.28201190
Fe       8.93300000      20.39700000      14.66500000       0.00000000       0.00000000       0.00000000       0.52337259      -0.15245235       0.47610641
Fe      10.36600000      21.83000000      16.09800000       0.00000000       0.00000000       0.00000000       0.69052881      -0.07730874      -0.25510588
Fe       8.93300000      20.39700000      17.53100000       0.00000000       0.00000000       0.00000000       0.64405692      -0.90644085       0.92361224
Fe      10.36600000      21.83000000      18.96400000       0.00000000       0.00000000       0.00000000      -0.04086894       0.06571350       0.02495644
Fe       8.93300000      20.39700000      20.39700000       0.00000000       0.00000000       0.00000000       0.63397062      -0.88265622      -0.87717772
Fe      10.36600000      21.83000000      21.83000000       0.00000000       0.00000000       0.00000000       0.81811023       0.02095002       0.02115416
Fe       8.93300000      20.39700000      23.26300000       0.00000000       0.00000000       0.00000000       1.65641809       0.04511658       0.01182054
Fe      10.36600000      21.83000000      24.69600000       0.00000000       0.00000000       0.00000000      -0.29970667      -0.10589141       0.22611064
Fe       8.93300000      20.39700000      26.12900000       0.00000000       0.00000000       0.00000000       0.44049224       2.10855532      -0.55080515
Fe      10.36600000      21.83000000      27.56200000       0.00000000       0.00000000       0.00000000       0.15531433       0.99605399      -0.35685122
Fe      10.36600000      24.69600000      13.23200000       0.00000000       0.00000000       0.00000000       0.15659392      -0.22706461       0.29583895
Fe       8.93300000      23.26300000      14.66500000       0.00000000       0.00000000       0.00000000       1.15178871       1.11225200      -0.56721634
Fe      10.36600000      24.69600000      16.09800000       0.00000000       0.00000000       0.00000000      -0.48312446       0.30076620      -0.12345878
Fe       8.93300000      23.26300000      17.53100000       0.00000000       0.00000000       0.00000000       1.68303859       0.08700066      -0.03798342
Fe      10.36600000      24.69600000      18.96400000       0.00000000       0.00000000       0.00000000       0.66675389      -0.67592388       0.01092745
Fe       8.93300000      23.26300000      20.39700000       0.00000000       0.00000000       0.00000000       1.66667509       0.01226312       0.05578422
Fe      10.36600000      24.69600000      21.83000000       0.00000000       0.00000000       0.00000000      -0.29764625       0.22877201      -0.10956866
Fe       8.93300000      23.26300000      23.26300000       0.00000000       0.00000000       0.00000000       1.63751793      -0.05397502      -0.04789376
Fe      10.36600000      24.69600000      24.69600000       0.00000000       0.00000000       0.00000000       0.48957416       0.27981496       0.28631094
Fe       8.93300000      23.26300000      26.12900000       0.00000000       0.00000000       0.00000000       1.09871387      -1.10614073       0.60892141
Fe      10.36600000      24.69600000      27.56200000       0.00000000       0.00000000       0.00000000       0.15059876      -0.12866330      -0.25592649
Fe       8.93300000      26.12900000      14.66500000       0.00000000       0.00000000       0.00000000       0.50946403      -0.57192600       0.61550015
Fe      10.36600000      27.56200000      16.09800000       0.00000000       0.00000000       0.00000000       0.31032747      -0.34709939      -0.77295274
Fe       8.93300000      26.12900000      17.53100000       0.00000000       0.00000000       0.00000000       0.38089135      -0.51163405      -2.11430025
K       10.36600000      27.56200000      18.96400000       0.00000000       0.00000000       0.00000000      -2.79498720       3.03713441      -0.02282677
Fe       8.93300000      26.12900000      20.39700000       0.00000000       0.00000000       0.00000000       0.48730868      -0.59409964       2.07834601
Fe      10.36600000      27.56200000      21.83000000       0.00000000       0.00000000       0.00000000       0.24469537      -0.34439683       1.04906750
Fe       8.93300000      26.12900000      23.26300000       0.00000000       0.00000000       0.00000000       1.11191964       0.60923308      -1.09920239
Fe      10.36600000      27.56200000      24.69600000       0.00000000       0.00000000       0.00000000       0.21414867      -0.21578498      -0.09435417
Fe       8.93300000      26.12900000      26.12900000       0.00000000       0.00000000       0.00000000       2.04954648       0.40331519       0.41022843
Fe      13.23200000      10.36600000      16.09800000       0.00000000       0.00000000       0.00000000       1.59144115      -0.46120343       0.34950709
K       13.23200000      10.36600000      18.96400000       0.00000000       0.00000000       0.00000000      -2.87334776      -2.93459964       0.06054081
Fe      13.23200000      10.36600000      21.83000000       0.00000000       0.00000000       0.00000000       0.28201175       0.23858459       0.98142511
Fe      13.23200000      10.36600000      24.69600000       0.00000000       0.00000000       0.00000000       0.29759383       0.16551629      -0.24571863
Fe      13.23200000      13.23200000      13.23200000       0.00000000       0.00000000       0.00000000       1.24770689       1.23403037      -0.80017221
K       11.79900000      11.79900000      14.66500000       0.00000000       0.00000000       0.00000000      -2.99296427      -3.05884552      -3.06818032
Fe      13.23200000      13.23200000      16.09800000       0.00000000       0.00000000       0.00000000       0.73420745       0.66552085       0.93768883
Fe      11.79900000      11.79900000      17.53100000       0.00000000       0.00000000       0.00000000      -0.39884958       1.35338640       0.17320421
Fe      13.23200000      13.23200000      18.96400000       0.00000000       0.00000000       0.00000000      -0.16199653       0.67007142      -0.01206057
Fe      11.79900000      11.79900000      20.39700000       0.00000000       0.00000000       0.00000000      -0.60427213       1.22200978       0.90837872
Fe      13.23200000      13.23200000      21.83000000       0.00000000       0.00000000       0.00000000      -0.14672449      -0.20609710      -0.08477078
Fe      11.79900000      11.79900000      23.26300000       0.00000000       0.00000000       0.00000000       0.15581432       0.15631017      -0.00488742
Fe      13.23200000      13.23200000      24.69600000       0.00000000       0.00000000       0.00000000      -0.31446019      -0.29501155       0.24176301
Fe      11.79900000      11.79900000      26.12900000       0.00000000       0.00000000       0.00000000       0.61759210       0.63556033      -0.52337164
Fe      13.23200000      13.23200000      27.56200000       0.00000000       0.00000000       0.00000000       0.13698587       0.14042766      -0.12832332
Fe      13.23200000      16.09800000      10.36600000       0.00000000       0.00000000       0.00000000       0.30939806       0.25457850       0.42943722
Fe      11.79900000      14.66500000      11.79900000       0.00000000       0.00000000       0.00000000       0.62210166       0.43524021       0.62512887
Fe      13.23200000      16.09800000      13.23200000       0.00000000       0.00000000       0.00000000      -0.36485547      -0.14038989      -0.29966593
Fe      11.79900000      14.66500000      14.66500000       0.00000000       0.00000000       0.00000000      -0.36547279       0.69759142      -0.25726372
Fe      13.23200000      16.09800000      16.09800000       0.00000000       0.00000000       0.00000000       0.06523860       0.08238516       0.03830413
Fe      11.79900000      14.66500000      17.53100000       0.00000000       0.00000000       0.00000000      -0.15131645      -0.24273676      -0.07970225
Fe      13.23200000      16.09800000      18.96400000       0.00000000       0.00000000       0.00000000       0.05515604       0.04832694       0.01472509
Fe      11.79900000      14.66500000      20.39700000       0.00000000       0.00000000       0.00000000      -0.13524799      -0.15209675       0.00944561
Fe      13.23200000      16.09800000      21.83000000       0.00000000       0.00000000       0.00000000       0.04140823       0.05048569      -0.00338836
Fe      11.79900000      14.66500000      23.26300000       0.00000000       0.00000000       0.00000000      -0.10534306      -0.17328487      -0.01177120
Fe      13.23200000      16.09800000      24.69600000       0.00000000       0.00000000       0.00000000       0.08306801       0.07483184      -0.03440026
Fe      11.79900000      14.66500000      26.12900000       0.00000000       0.00000000       0.00000000      -0.42787606      -0.35561335       0.36963898
Fe      13.23200000      16.09800000      27.56200000       0.00000000       0.00000000       0.00000000      -0.36556193      -0.13781787       0.29077566
Fe      11.79900000      14.66500000      28.99500000       0.00000000       0.00000000       0.00000000       0.57257074       0.48119873      -0.53465128
Fe      13.23200000      16.09800000      30.42800000       0.00000000       0.00000000       0.00000000       0.23358464       0.20509478      -0.21516356
Fe      13.23200000      18.96400000      10.36600000       0.00000000       0.00000000       0.00000000       0.13372457       0.07073262       0.25534773
Fe      11.79900000      17.53100000      11.79900000       0.00000000       0.00000000       0.00000000       1.19075155      -0.90865064      -0.55991590
Fe      13.23200000      18.96400000      13.23200000       0.00000000       0.00000000       0.00000000       0.67839891      -0.00294831      -0.15238929
Fe      11.79900000      17.53100000      14.66500000       0.00000000       0.00000000       0.00000000       0.74746221      -0.87618458       0.70399940
Fe      13.23200000      18.96400000      16.09800000       0.00000000       0.00000000       0.00000000      -0.00673766       0.00670156      -0.01323943
Fe      11.79900000      17.53100000      17.53100000       0.00000000       0.00000000       0.00000000       0.09861618       0.03445484       0.03697612
Fe      13.23200000      18.96400000      18.96400000       0.00000000       0.00000000       0.00000000       0.01038849       0.00270379       0.00806396
Fe      11.79900000      17.53100000      20.39700000       0.00000000       0.00000000       0.00000000       0.07162684       0.02767757      -0.02415605
Fe      13.23200000      18.96400000      21.83000000       0.00000000       0.00000000       0.00000000       0.02895400       0.00508255      -0.00903842
Fe      11.79900000      17.53100000      23.26300000       0.00000000       0.00000000       0.00000000       0.11622512       0.02717209      -0.03663134
Fe      13.23200000      18.96400000      24.69600000       0.00000000       0.00000000       0.00000000      -0.01597908       0.00596801       0.01157753
Fe      11.79900000      17.53100000      26.12900000       0.00000000       0.00000000       0.00000000       0.76584095      -0.87086415      -0.69943309
Fe      13.23200000      18.96400000      27.56200000       0.00000000       0.00000000       0.00000000       0.68168992       0.00192712       0.15639937
Fe      11.79900000      17.53100000      28.99500000       0.00000000       0.00000000       0.00000000       1.26872802      -0.94395697       0.61652189
Fe      13.23200000      18.96400000      30.42800000       0.00000000       0.00000000       0.00000000       0.15846583      -0.06014935      -0.16073368
Fe      13.23200000      21.83000000      10.36600000       0.00000000       0.00000000       0.00000000      -0.63646317      -0.97471654       1.27648008
Fe      11.79900000      20.39700000      11.79900000       0.00000000       0.00000000       0.00000000       1.28615284       0.95030260      -0.63160467
Fe      13.23200000      21.83000000      13.23200000       0.00000000       0.00000000       0.00000000      -0.22275150      -0.07838584      -0.16333885
Fe      11.79900000      20.39700000      14.66500000       0.00000000       0.00000000       0.00000000       0.74803585       0.85938108       0.71970880
Fe      13.23200000      21.83000000      16.09800000       0.00000000       0.00000000       0.00000000       0.01783078      -0.02700461       0.02211233
Fe      11.79900000      20.39700000      17.53100000       0.00000000       0.00000000       0.00000000       0.08141154      -0.01547369       0.02427887
Fe      13.23200000      21.83000000      18.96400000       0.00000000       0.00000000       0.00000000       0.02744056      -0.00998747       0.00510873
Fe      11.79900000      20.39700000      20.39700000       0.00000000       0.00000000       0.00000000       0.06392059      -0.00875352      -0.00746979
Fe      13.23200000      21.83000000      21.83000000       0.00000000       0.00000000       0.00000000      -0.00333644      -0.00199869      -0.00220908
Fe      11.79900000      20.39700000      23.26300000       0.00000000       0.00000000       0.00000000       0.09081835       0.00589329      -0.03409636
Fe      13.23200000      21.83000000      24.69600000       0.00000000       0.00000000       0.00000000       0.04504256      -0.02495184      -0.02202089
Fe      11.79900000      20.39700000      26.12900000       0.00000000       0.00000000       0.00000000       0.77503717       0.86734712      -0.70854139
Fe      13.23200000      21.83000000      27.56200000       0.00000000       0.00000000       0.00000000      -0.20710811      -0.08727149       0.14777775
Fe      11.79900000      20.39700000      28.99500000       0.00000000       0.00000000       0.00000000       1.26228702       0.93397033       0.60056967
Fe      13.23200000      21.83000000      30.42800000       0.00000000       0.00000000       0.00000000       0.14122503       0.00361482      -0.16484596
Fe      13.23200000      24.69600000      10.36600000       0.00000000       0.00000000       0.00000000      -0.47626999       0.72641182       1.28720617
Fe      11.79900000      23.26300000      11.79900000       0.00000000       0.00000000       0.00000000       0.19372886      -0.00524574       0.07948142
Fe      13.23200000      24.69600000      13.23200000       0.00000000       0.00000000       0.00000000      -0.28083766       0.21847013      -0.28040272
Fe      11.79900000      23.26300000      14.66500000       0.00000000       0.00000000       0.00000000      -0.09930839      -0.03482313      -0.16048002
Fe      13.23200000      24.69600000      16.09800000       0.00000000       0.00000000       0.00000000       0.08242934      -0.02993232       0.08002062
Fe      11.79900000      23.26300000      17.53100000       0.00000000       0.00000000       0.00000000       0.12375169      -0.02705103       0.03563696
Fe      13.23200000      24.69600000      18.96400000       0.00000000       0.00000000       0.00000000      -0.01675439       0.00598068       0.00917998
Fe      11.79900000      23.26300000      20.39700000       0.00000000       0.00000000       0.00000000       0.09264062      -0.02995247       0.00595787
Fe      13.23200000      24.69600000      21.83000000       0.00000000       0.00000000       0.00000000       0.04353650      -0.02603270      -0.02838260
Fe      11.79900000      23.26300000      23.26300000       0.00000000       0.00000000       0.00000000       0.13362211      -0.04073046      -0.04167293
Fe      13.23200000      24.69600000      24.69600000       0.00000000       0.00000000       0.00000000       0.08929744      -0.06567259      -0.06978036
Fe      11.79900000      23.26300000      26.12900000       0.00000000       0.00000000       0.00000000      -0.09178546      -0.02345803       0.18057498
Fe      13.23200000      24.69600000      27.56200000       0.00000000       0.00000000       0.00000000      -0.26012343       0.22289382       0.26967108
Fe      11.79900000      23.26300000      28.99500000       0.00000000       0.00000000       0.00000000       0.12233561      -0.00723962      -0.10008933
Fe      13.23200000      24.69600000      30.42800000       0.00000000       0.00000000       0.00000000       0.27550679      -0.12503710      -0.18321754
Fe      11.79900000      26.12900000      11.79900000       0.00000000       0.00000000       0.00000000       0.66401297      -0.47865844       0.51112062
Fe      13.23200000      27.56200000      13.23200000       0.00000000       0.00000000       0.00000000       0.07363226      -0.04461257       0.14382745
Fe      11.79900000      26.12900000      14.66500000       0.00000000       0.00000000       0.00000000      -0.43997863       0.40979236      -0.36752903
Fe      13.23200000      27.56200000      16.09800000       0.00000000       0.00000000       0.00000000      -0.44219014      -0.50211447      -0.16392678
Fe      11.79900000      26.12900000      17.53100000       0.00000000       0.00000000       0.00000000       0.74514556      -0.70082724      -0.84337866
Fe      13.23200000      27.56200000      18.96400000       0.00000000       0.00000000       0.00000000       0.62809527       0.24028358      -0.08840520
Fe      11.79900000      26.12900000      20.39700000       0.00000000       0.00000000       0.00000000       0.75173748      -0.71558988       0.85932803
Fe      13.23200000      27.56200000      21.83000000       0.00000000       0.00000000       0.00000000      -0.24062091       0.22236887       0.00120099
Fe      11.79900000      26.12900000      23.26300000       0.00000000       0.00000000       0.00000000      -0.10309868       0.17260231      -0.03539935
Fe      13.23200000      27.56200000      24.69600000       0.00000000       0.00000000       0.00000000      -0.32398278      -0.53926617       0.25316164
Fe      11.79900000      26.12900000      26.12900000       0.00000000       0.00000000       0.00000000      -0.40041187       0.46943280       0.46566698
Fe      13.23200000      27.56200000      27.56200000       0.00000000       0.00000000       0.00000000      -0.85377634      -1.15444446      -1.27647901
Fe      11.79900000      26.12900000      28.99500000       0.00000000       0.00000000       0.00000000       0.53129268      -0.41029659      -0.53861696
Fe      11.79900000      28.99500000      14.66500000       0.00000000       0.00000000       0.00000000      -0.35279614      -1.83246803      -0.44712061
K       13.23200000      30.42800000      16.09800000       0.00000000       0.00000000       0.00000000      -2.98207378       2.92129469      -0.73191071
Fe      11.79900000      28.99500000      17.53100000       0.00000000       0.00000000       0.00000000       0.49454072      -0.42553258       0.03138388
Fe      13.23200000      30.42800000      18.96400000       0.00000000       0.00000000       0.00000000      -0.48880681      -1.37734139       0.14609882
Fe      11.79900000      28.99500000      20.39700000       0.00000000       0.00000000       0.00000000       1.34046483       0.54122812       0.92285001
Fe      13.23200000      30.42800000      21.83000000       0.00000000       0.00000000       0.00000000      -0.43130013      -1.38667691      -0.15293726
Fe      11.79900000      28.99500000      23.26300000       0.00000000       0.00000000       0.00000000      -0.55793560      -1.17097020      -0.97381926
K       13.23200000      30.42800000      24.69600000       0.00000000       0.00000000       0.00000000      -3.01208615       2.89668941       0.78080589
Fe      11.79900000      28.99500000      26.12900000       0.00000000       0.00000000       0.00000000      -0.32705206      -1.88234639       0.44478658
Fe      16.09800000       7.50000000      16.09800000       0.00000000       0.00000000       0.00000000       0.28346458       0.92714435       0.37444633
Fe      16.09800000       7.50000000      18.96400000       0.00000000       0.00000000       0.00000000       0.41637656       0.75319839      -1.07936633
K       16.09800000       7.50000000      21.83000000       0.00000000       0.00000000       0.00000000      -0.86155486      -4.95152760      -0.05420903
Fe      16.09800000       7.50000000      24.69600000       0.00000000       0.00000000       0.00000000      -0.52329063       0.31115687      -0.33053237
Fe      16.09800000      10.36600000      13.23200000       0.00000000       0.00000000       0.00000000       0.13883965       0.22454353       0.30275071
Fe      14.66500000       8.93300000      14.66500000       0.00000000       0.00000000       0.00000000       0.67498350       0.56910688       0.62443566
Fe      16.09800000      10.36600000      16.09800000       0.00000000       0.00000000       0.00000000      -0.35720590      -0.29256964      -0.19785024
Fe      14.66500000       8.93300000      17.53100000       0.00000000       0.00000000       0.00000000       1.25724363      -0.72949851      -1.02273750
Fe      16.09800000      10.36600000      18.96400000       0.00000000       0.00000000       0.00000000       0.60358065      -0.16723150       0.10581904
Fe      14.66500000       8.93300000      20.39700000       0.00000000       0.00000000       0.00000000       0.45893770       0.49466053      -0.15656918
Fe      16.09800000      10.36600000      21.83000000       0.00000000       0.00000000       0.00000000      -0.28822646       0.74036801      -0.10918706
Fe      14.66500000       8.93300000      23.26300000       0.00000000       0.00000000       0.00000000      -0.52380157       1.08404911       1.19089973
Fe      16.09800000      10.36600000      24.69600000       0.00000000       0.00000000       0.00000000      -1.13921618       0.46397302      -0.64153153
Fe      14.66500000       8.93300000      26.12900000       0.00000000       0.00000000       0.00000000      -0.37384421       0.56730729      -0.71222425
Fe      16.09800000      10.36600000      27.56200000       0.00000000       0.00000000       0.00000000      -0.68047172       1.33298886       0.54582769
Fe      16.09800000      13.23200000      10.36600000       0.00000000       0.00000000       0.00000000       0.15740594       0.30558690       0.22268593
Fe      14.66500000      11.79900000      11.79900000       0.00000000       0.00000000       0.00000000       0.38761437       0.58954811       0.56422102
Fe      16.09800000      13.23200000      13.23200000       0.00000000       0.00000000       0.00000000      -0.21972038      -0.31328127      -0.30555567
Fe      14.66500000      11.79900000      14.66500000       0.00000000       0.00000000       0.00000000       0.65951782      -0.37043059      -0.24873576
Fe      16.09800000      13.23200000      16.09800000       0.00000000       0.00000000       0.00000000       0.02476025       0.07367060       0.08460037