10
Lattice="6.0 0.0 0.0 0.0 6.0 0.0 0.0 0.0 6.0" Properties=species:S:1:pos:R:3:forces:R:3 energy=-47.37814435 stress="-0.07161345427866077 0.029402063273447566 0.18102334723570074 0.029402063273447566 -0.06330843492732609 0.03466820440948978 0.18102334723570074 0.03466820440948978 -0.3050096403641144" free_energy=-47.37814435 pbc="T T T"
H        0.03583620       4.38010362       5.78748492       2.71846275     -12.07837803       0.44118642
H        2.82185196       5.65298130       4.09350588       0.08256606       0.22031431       0.09713094
H        2.33884026       5.27657034       4.50390576      -0.24653066      -0.14198485       0.44115461
H        5.91411792       4.93398954       5.76624432      -2.60769017      11.98549735      -0.44827668
N        3.59999988       3.59999988       3.00000000       0.42749915      -2.28331350      -0.63751938
N        5.83809630       0.35657958       3.48391962       6.43688881       9.76353051       0.35323359
N        0.51262026       1.39497354       3.51842238      -6.35789146      -9.63285211      -0.33385139
N        3.69176772       3.76318452       1.88563728      -0.29086467      -8.95320242       2.63440168
N        3.91759872       5.58180234       1.31068122      52.42146027       8.88893530     -93.37761325
N        3.49961640       5.54286498       2.05286766     -52.58390009       2.23145345      90.83015346
12
Lattice="7.6 0.0 0.0 0.0 7.2 0.0 0.0 0.0 7.2" Properties=species:S:1:pos:R:3:forces:R:3 energy=-64.98899435 stress="0.05349057168691399 -0.025673152601279052 0.008365981007329402 -0.025673152601279052 0.026258448340728654 -0.005992659089736233 0.008365981007329402 -0.005992659089736233 0.009592942594759402" free_energy=-64.98899435 pbc="T T T"
H        4.00000000       3.20000004       3.59999993       0.33730397       0.24704696      -0.23402564
H        3.47547840       2.82901025       3.96146563      -0.34894263      -0.25502677       0.24353491
H        1.15611709       4.43898727       2.04803014       0.10060129      -0.41850759       0.15620587
H        1.00693814       5.10734894       1.77517130      -0.08178043       0.41284742      -0.18372880
H        5.81882380       6.86640312       5.99655816       0.46202366      -0.11929560      -0.07057372
H        5.11101771       7.05556915       6.07804726      -0.44239070       0.12192815       0.04461232
N        2.05394841       6.70720198       4.49595835      -1.62245875      -0.86243289       0.26197785
N        1.06891439       6.17773104       4.65789557       1.62338243       0.87086711      -0.22892306
N        5.80660680       3.92598058       0.82195762      -1.58850462       0.96171923       0.00321884
N        4.84507942       4.51949695       0.82956269       1.59102646      -0.95601940      -0.00188630
N        2.00599743       2.29239893       7.15092948      11.99870687      -7.88139587       2.75496460
N        3.26836944       1.46423664       0.24187406     -12.02896756       7.87826924      -2.74537688
8
Lattice="6.0 0.0 0.0 0.0 6.0 0.0 0.0 0.0 6.0" Properties=species:S:1:pos:R:3:forces:R:3 energy=-45.78840398 stress="0.015225344967160815 0.006738444507203735 -0.005057271904238737 0.006738444507203735 0.008416823448133041 0.007827771830634867 -0.005057271904238737 0.007827771830634867 -0.0047052041467412235" free_energy=-45.78840398 pbc="T T T"
H        3.59999988       3.40000008       3.20000004      -0.55162271       0.17437713      -1.17599590
H        3.08440470       3.80469678       2.86266396      -0.89383950       0.69774367      -1.32534260
H        0.60224118       0.36823692       2.83067490      -0.44357425       0.06199257       0.36205791
H        1.21087824       0.26447664       2.42792370       0.41255431      -0.07052730      -0.27243472
N        1.08794190       0.51303720       5.97673560      -1.24427660      -0.51822487      -0.94781753
N        4.26627300       3.07750104       4.48268748       2.33455904      -0.89547546       2.59360943
N        5.39377878       3.12693426       4.53874350      -0.91936431       0.06856253      -0.10037008
N        0.16843476       0.17305776       5.41479636       1.30556402       0.48155173       0.86629348
8
Lattice="6.0 0.0 0.0 0.0 6.0 0.0 0.0 0.0 6.0" Properties=species:S:1:pos:R:3:forces:R:3 energy=-56.41358519 stress="0.01388551930616213 0.0039453487074625525 -0.0008472518462553764 0.0039453487074625525 0.029980056072729334 0.005312392079314007 -0.0008472518462553764 0.005312392079314007 0.017807455145459578" free_energy=-56.41358519 pbc="T T T"
H        4.00000002       3.40000008       3.79999998       0.06307986      -0.15063726      -0.34856793
H        3.52752660       3.84338784       4.15155366      -0.34345789       0.27280324      -0.04251214
N        0.33329472       3.68396994       3.66147420       0.43925099      -1.47354270      -0.78906752
N        0.49340370       2.65340280       3.22655916      -0.17862715       1.47174273       0.75068791
N        0.70409082       5.58220908       1.03284012      -0.59025440      -1.38764128      -1.05367343
N        0.34559598       4.70047188       0.42384450       0.58695362       1.41584079       1.11328941
N        3.10677744       2.00102064       1.04971422       0.77101623       0.90826804      -1.32103909
N        3.60811260       2.59879494       0.23228898      -0.74796126      -1.05683357       1.69088279
6
Lattice="6.0 0.0 0.0 0.0 6.0 0.0 0.0 0.0 6.0" Properties=species:S:1:pos:R:3:forces:R:3 energy=-24.56666715 stress="0.02901541774263793 -0.0015537353920175242 -0.009854137680598965 -0.0015537353920175242 0.021122475718751917 -0.0019696619704912877 -0.009854137680598965 -0.0019696619704912877 0.020843047443374604" free_energy=-24.59792931 pbc="T T T"
H        3.40000008       3.00000000       3.59999988       0.49371530       0.22269054       0.10951008
H        2.74715808       2.69018052       3.45431898      -0.51445533      -0.22287174      -0.10842911
N        5.76113316       0.92777346       3.57940866      -0.81880171      -0.51524618       0.93372917
N        4.16367102       5.89707138       5.99741508      -0.38300331      -0.11658698      -1.03808384
N        2.39165238       5.29725984       5.93241648      -1.17700204       3.01145901       0.80353321
N        1.51615344       0.01092480       0.16465032       2.39954708      -2.37944466      -0.70025950
10
Lattice="6.0 0.0 0.0 0.0 6.0 0.0 0.0 0.0 6.0" Properties=species:S:1:pos:R:3:forces:R:3 energy=-42.59543071 stress="-0.09862908236739638 -0.07620681938863554 -0.004876366075107817 -0.07620681938863554 -0.022993138298076955 0.03747394444566345 -0.004876366075107817 0.03747394444566345 -0.015901083244666957" free_energy=-42.59777247 pbc="T T T"
H        3.00000000       3.40000008       3.40000008      -0.23420085      -0.43603005       0.17890199
H        0.26753724       5.84941194       4.07525586      -5.35165098       8.36544870     -10.03444105
H        0.46881966       5.50219584       4.46224692       4.48045300      -9.43832637       9.11260173
H        3.33847620       4.01394846       3.17215182       0.23001212       0.42591264      -0.16181624
H        1.14132678       0.05052756       5.22691440       1.00555670       4.06056393      -0.11350651
N        1.52838552       0.02009202       1.42382142      43.03508313      19.28172348       0.66483306
N        0.66449406       5.61472938       1.44208740     -43.13669057     -20.41833965       0.93900742
N        2.30007360       2.91483282       0.50263716      -8.40807008      -0.57437498      -2.07256905
N        0.80870334       2.75867202       0.35515812       9.63468764      -1.87450730      -0.23390963
N        1.63295520       1.20810510       5.89242408      -1.25518010       0.60792959       1.72089828
8
Lattice="6.4 0.0 0.0 0.0 6.2 0.0 0.0 0.0 6.6" Properties=species:S:1:pos:R:3:forces:R:3 energy=-56.4356701 stress="0.013719642032364875 -0.002450325175784765 0.0007633456287667733 -0.002450325175784765 0.018086797075799646 0.007845650646008978 0.0007633456287667733 0.007845650646008978 0.01705070090609576" free_energy=-56.4356701 pbc="T T T"
H        3.40019610       2.24310277       5.95320462      -0.38334702       0.03915291      -0.09180873
H        4.11653376       2.13841367       6.09217930       0.41907587      -0.07775104       0.07118666
N        3.79999994       3.79999996       3.40000010       0.31845535       1.43187352       1.25645926
N        1.07382035       2.58635449       1.70491847       1.53213131      -1.19359287       0.03812883
N        1.98116186       1.92048931       1.60387537      -1.53076723       1.01680195       0.24802775
N        0.49397088       3.29567721       5.74653196      -0.33320960      -0.24966659      -2.05103930
N        0.31249818       3.05089501       4.65841200       0.32336382       0.33277145       1.84692416
N        3.98027731       4.61931422       4.15702010      -0.34570252      -1.29958934      -1.31787864
10
Lattice="6.8 0.0 0.0 0.0 6.8 0.0 0.0 0.0 6.4" Properties=species:S:1:pos:R:3:forces:R:3 energy=-46.72234738 stress="-0.038129450478122974 0.05319637200013748 0.1444776179822284 0.05319637200013748 -0.02562083815048015 -0.12116523274635466 0.1444776179822284 -0.12116523274635466 -0.3308693941403942" free_energy=-46.72234738 pbc="T T T"
H        3.20000003       3.59999990       3.20000006      -0.41064811      -0.04940068       0.78890331
H        3.88118908       3.45442346       2.95874784       0.20708868      -0.23696777       0.58556107
N        3.89424399       4.87636187       0.72686893       0.48672266      -2.03087912      -0.14364313
N        3.96160153       3.82482551       1.13502227       0.40195209       1.54425797      -1.66100371
N        2.37870052       1.81426536       6.30809114      -1.91867419      -0.75224671      -0.76829731
N        1.36708308       1.41363874       5.99900058       1.74170704       0.79418602       0.53725515
N        1.35277078       5.19412995       5.74875590       5.12674788      -1.79405730     -14.17119202
N        1.82782783       5.03559829       4.45874451      -5.44359516       1.74727511      14.17020775
N        3.14768505       0.04172473       1.98593056      69.77931127     -53.65366218    -169.89792491
N        2.86766771       0.25930549       2.66817120     -69.97061215      54.43149466     170.56013380
6
Lattice="6.0 0.0 0.0 0.0 6.0 0.0 0.0 0.0 6.2" Properties=species:S:1:pos:R:3:forces:R:3 energy=-30.13155944 stress="0.007722442275947109 0.0011147306150979881 -0.004129389421933076 0.0011147306150979881 0.005027208146364184 -0.0010224129966283429 -0.004129389421933076 -0.0010224129966283429 0.010930796288398818" free_energy=-30.13155944 pbc="T T T"
H        3.20000004       3.20000004       3.00000001       0.06750861       0.38088470      -0.32811084
H        3.10031106       2.64277770       3.47220658      -0.06304960      -0.37706776       0.32260202
H        2.53577040       5.69734098       5.42145825      -0.44909096       0.01679042      -0.01725618
H        3.27216030       5.66392326       5.41625831       0.49268408      -0.03831851      -0.04274459
N        0.68097312       0.20852640       2.51704097       1.08746696       0.33231691      -1.47081078
N        1.34154810       0.41113062       1.62292304      -1.13551909      -0.31460577       1.53632037
8
Lattice="6.6 0.0 0.0 0.0 6.4 0.0 0.0 0.0 6.4" Properties=species:S:1:pos:R:3:forces:R:3 energy=-36.80654199 stress="0.001027638968528881 0.0004049430890309993 0.002613165218894199 0.0004049430890309993 0.004069694723634305 0.0037005123548985446 0.002613165218894199 0.0037005123548985446 0.010150785724160283" free_energy=-36.80654199 pbc="T T T"
H        3.20000003       3.20000006       3.79999994       0.33811665      -0.24805696       0.17823429
H        6.52977897       5.10694739       5.18517830       0.50894778       0.05645610      -0.09356625
H        5.79397724       5.15176538       5.18447021      -0.26315690       0.11841246      -0.15818749
H        0.80899414       0.99892621       1.05880045       0.40393307      -0.27966652       0.00359997
H        0.20428973       1.42050650       1.05474829      -0.40272903       0.28008517      -0.00270060
H        2.64031647       3.59149171       3.52268723      -0.38208533       0.23138505      -0.17132498
N        4.51773023       3.93785382       0.18568550       0.16169036       0.41382216       1.95622423
N        4.72854373       4.28084518       1.24151181      -0.36471660      -0.57243746      -1.71227917
13
Lattice="6.0 0.0 0.0 0.0 6.0 0.0 0.0 0.0 6.6" Properties=species:S:1:pos:R:3:forces:R:3 energy=-44.35729582 stress="-0.45049095413064216 0.13064645275842487 -0.07976280209118877 0.13064645275842487 -0.5537478092752357 0.05505596615556357 -0.07976280209118877 0.05505596615556357 -0.15742598188335769" free_energy=-44.37615805 pbc="T T T"
H        3.31931760       4.03409292       0.36049616       0.34931533       0.09915762      -0.14063630
H        2.64472674       4.06241892       0.65636505      -0.48748845       0.14480598       0.16843665
N        3.20000004       4.00000002       3.79999996     -58.74136156     -35.79603559      -5.53944879
N        4.52459910       1.15465758       1.57152864       1.03852551      -2.52037349      28.09894940
N        3.15585378       2.93408562       3.42753173      -4.47482313     -11.43957700      -3.97585498
N        5.05321788       4.44789600       3.87057950      10.58938634       2.80595249       0.44158372
N        3.92879010       4.55562780       3.90076612      53.20057097      45.38224852       8.71567438
N        4.69455432       2.49413136       5.25291446       0.80705745       0.83394636      -2.70276684
N        5.42947482       1.67381808       5.00026322       0.99254497      -0.45847161      -0.80867816
N        4.11846588       1.71077742       0.32226183    -113.40508877     145.11114691     -32.42513462
N        2.74055718       0.47298540       3.96191717      -2.49898842       1.02646391      -0.72629814
N        1.85426118       0.90080646       3.40666630       1.17206451      -1.30180751       0.84526031
N        4.59164478       1.09603368       0.44506394     111.45828524    -143.88745658       8.04891337
6
Lattice="6.0 0.0 0.0 0.0 6.0 0.0 0.0 0.0 6.0" Properties=species:S:1:pos:R:3:forces:R:3 energy=-27.04904884 stress="0.07728553032322466 0.04188166886151083 -0.006487768205486475 0.04188166886151083 0.028409445106790065 -0.004712733603758251 -0.006487768205486475 -0.004712733603758251 0.0042384318069809655" free_energy=-27.04904884 pbc="T T T"
H        4.00000002       3.79999998       4.00000002       0.07910483       0.43530175       0.20059939
H        2.99152920       0.93026178       0.78146964      -0.25223410      -0.38724902      -0.16965030
H        3.37648728       1.51195182       1.01991798       0.25552418       0.38359149       0.13519552
H        3.88218858       3.14295888       3.68722056      -0.07827793      -0.43040731      -0.19662526
N        1.85476878       0.64872060       3.59377956     -13.06520343      -7.88166802       1.18404605
N        0.65580522       5.93123220       3.69928884      13.06108645       7.88043111      -1.15356540
7
Lattice="6.0 0.0 0.0 0.0 6.0 0.0 0.0 0.0 6.0" Properties=species:S:1:pos:R:3:forces:R:3 energy=-34.40218871 stress="0.07666106390235002 -0.018653929237262782 -0.0404426088165273 -0.018653929237262782 0.03452047577774766 0.008193819807110245 -0.0404426088165273 0.008193819807110245 0.0408632461552893" free_energy=-34.43782448 pbc="T T T"
H        1.45683918       2.47765326       0.88337358       0.41712411      -0.21787608      -0.17915228
H        0.85298262       2.80098222       1.15582410      -0.39906145       0.22582719       0.20608439
N        3.79999998       3.20000004       3.59999988      -1.47665173       0.01356129       0.02886551
N        0.65300490       0.04108602       4.67346906       6.59607653       1.30051903      -6.24333625
N        2.67004488       3.19297386       3.60263562       1.58282157      -0.23604442       0.02438422
N        5.62335156       1.85461296       4.84021188       1.53856960      -2.69989731      -0.38633947
N        1.93543362       5.84189700       3.64538334      -8.25887864       1.61391030       6.54949388
6
Lattice="6.2 0.0 0.0 0.0 6.2 0.0 0.0 0.0 6.0" Properties=species:S:1:pos:R:3:forces:R:3 energy=-19.37609496 stress="0.006959510428027837 0.006268113926781374 0.005027886947930679 0.006268113926781374 0.0119791984234651 0.008556481902198033 0.005027886947930679 0.008556481902198033 0.008785758297341397" free_energy=-19.40429139 pbc="T T T"
H        3.20000005       3.59999993       3.40000008      -0.40504303      -0.30431836      -0.03081505
H        5.95976209       4.80867387       5.82505464      -0.07864358       0.58454810      -0.03267015
H        6.07478573       4.08791922       5.92847538       0.11372068      -0.76527413       0.05795892
H        6.12045815       0.03349779       4.67360208       1.86985465       2.85019296       1.99492527
H        3.78816652       4.04133081       3.45197130       0.40029246       0.29943853       0.03086127
N        0.51196779       0.93297110       5.32387398      -1.90018118      -2.66458710      -2.02026026
8
Lattice="6.0 0.0 0.0 0.0 6.0 0.0 0.0 0.0 6.0" Properties=species:S:1:pos:R:3:forces:R:3 energy=-28.73913836 stress="0.0067459339311812284 -0.07957496539697355 0.02489590872327376 -0.07957496539697355 -0.2759424680714952 0.0679684255694764 0.02489590872327376 0.0679684255694764 -0.009601625438972328" free_energy=-28.73913836 pbc="T T T"
H        4.00000002       3.20000004       3.20000004       0.02377795       0.32516382       0.31927086
H        3.87956904       2.73606660       2.63993238      -0.05130243      -0.06498775      -0.20686768
H        3.81646464       0.52090470       2.00011446       0.22755756      -0.31078202      -0.13459094
H        3.28030896       1.00178004       2.15730714      -0.32394934       0.09835062       0.02972097
H        4.69018602       5.99833440       5.73243474       4.54569137      -0.14880073       1.00480291
H        5.80942680       5.96933460       5.97439434      -4.55162502       0.07641663      -0.98312172
N        0.45250992       1.48279086       3.46423290     -20.45089554     -72.65259061      17.88661122
N        0.68899602       2.31966804       3.25755906      20.58074545      72.67723003     -17.91582564
6
Lattice="6.2 0.0 0.0 0.0 6.2 0.0 0.0 0.0 6.0" Properties=species:S:1:pos:R:3:forces:R:3 energy=-35.25167262 stress="0.03530085987758286 0.006353102328329768 0.013953149827412586 0.006353102328329768 0.022920194973051002 0.031832124403696704 0.013953149827412586 0.031832124403696704 0.08453026790665301" free_energy=-35.27988195 pbc="T T T"
H        3.87559415       5.35191248       5.62103130      -2.66316615       0.90705770       2.61196191
N        3.79999996       3.00000001       4.00000002      -0.67828950      -0.91680397      -1.45751130
N        5.94999219       4.15899181       1.86862338       5.38869830       4.90126854      11.37758048
N        3.42398379       2.45897220       3.08198286       0.56604862       0.86103915       1.49618047
N        2.61678316       5.79827311       0.84553146       2.67148809      -0.92286576      -2.57848746
N        0.25594896       4.61933517       2.95798134      -5.28477937      -4.82969566     -11.44972409
5
Lattice="6.0 0.0 0.0 0.0 6.0 0.0 0.0 0.0 6.0" Properties=species:S:1:pos:R:3:forces:R:3 energy=-23.4345342 stress="0.012233132568251742 0.0021154306060886447 -0.0039154137805778675 0.0021154306060886447 0.007724344263506058 -0.0021938236860833365 -0.0039154137805778675 -0.0021938236860833365 0.01055448255233959" free_energy=-23.47565037 pbc="T T T"
H        4.00000002       4.00000002       4.00000002      -0.08124869       0.22439097       0.45831965
H        4.12374354       3.67271256       3.35116722       0.07656176      -0.23038066      -0.46117722
N        5.75521470       1.30135212       0.08974566      -0.06096532       0.01212230      -0.07379601
N        0.94523052       0.95866446       2.98471854      -1.08913664      -0.48709031       0.95245662
N        0.10467516       0.62175498       3.66059826       1.15478889       0.48095771      -0.87580304
6
Lattice="6.0 0.0 0.0 0.0 6.2 0.0 0.0 0.0 6.2" Properties=species:S:1:pos:R:3:forces:R:3 energy=-28.32498631 stress="0.07611078683641719 0.014804359857751833 -0.016688294756572696 0.014804359857751833 0.008026250198045582 -0.0063699395793854795 -0.016688294756572696 -0.0063699395793854795 0.015572974418726458" free_energy=-28.32498631 pbc="T T T"
H        3.00000000       3.00000001       3.00000001      -0.10337386       0.45158240      -0.19749133
H        5.53948500       0.86972707       5.36632965       2.74046916       1.72261662      -3.10626721
H        0.18853806       1.27902547       4.62803080      -2.73199528      -1.71218222       3.10528284
H        3.14917896       2.33163834       3.27285885       0.10508808      -0.44267701       0.17408907
N        4.24574850       4.42564246       5.91688630     -11.67589878      -1.92597034       1.55453007
N        3.02308104       4.22931766       6.07516288      11.66571068       1.90663055      -1.53014343
8
Lattice="6.0 0.0 0.0 0.0 6.2 0.0 0.0 0.0 7.0" Properties=species:S:1:pos:R:3:forces:R:3 energy=-46.5297103 stress="0.021354238662474437 -0.0008761807230085878 -0.004518895055643044 -0.0008761807230085878 0.003681556336188925 0.004797444863576928 -0.004518895055643044 0.004797444863576928 0.008786563795301638" free_energy=-46.5297103 pbc="T T T"
H        3.79999998       3.00000001       3.99999999      -0.11967323      -0.31113274       0.43156846
H        0.93658602       1.17918302       4.13705397       0.46351270      -0.05440739      -0.00668039
H        0.20082618       1.21933769       4.11563299      -0.45093161       0.01987297      -0.00653266
H        4.20273162       2.72352552       3.44792889       0.17014022      -0.49315272      -0.04761815
N        3.31458330       5.17519952       3.01157570       1.37692937      -0.39286730      -1.13178737
N        4.17926646       4.73299599       2.43396496      -1.43601520       1.22904160       0.73847429
N        2.45524980       2.03846929       0.06259967      -1.71916206      -0.21988623       0.24234420
N        1.34150436       1.90574503       0.19974871       1.71519982       0.22253180      -0.21976839
9
Lattice="6.0 0.0 0.0 0.0 6.0 0.0 0.0 0.0 6.0" Properties=species:S:1:pos:R:3:forces:R:3 energy=-49.15812097 stress="-0.029893984226336302 0.03302322890193057 -0.06103957933874253 0.03302322890193057 -0.02837350233415664 -0.009296765947416328 -0.06103957933874253 -0.009296765947416328 -0.09130989040206572" free_energy=-49.17579541 pbc="T T T"
H        2.32991790       3.35410854       0.52655604      -2.34911649      -0.75327969      -1.23784412
N        3.20000004       4.00000002       3.79999998      -1.34469389       0.54377737       0.89855498
N        2.30703018       4.27882674       4.43381022       0.93384896      -0.30022480      -1.07744046
N        5.37490176       1.04576136       5.54246904      11.23425455     -14.26955749       7.87845200
N        4.59864996       1.86575232       5.49885132      -5.74946760      12.63411482       9.30417211
N        3.98750184       0.96984642       3.67732452      -2.76307932      -4.86697352      -5.68856930
N        4.54187772       1.71147000       4.32502554      -3.79423625       4.70336998     -10.47629424
N        4.68734982       5.42608404       5.18826672       0.61478453       1.78251546      -0.35645200
N        3.18789888       3.66357300       0.90368700       3.21770549       0.52625788       0.75542102
42
Lattice="9.0 0.0 0.0 0.0 9.0 0.0 0.0 0.0 19.6" Properties=species:S:1:pos:R:3:forces:R:3 energy=-260.63804442 stress="-0.002954886170811862 -0.018508151370473427 0.011222040015177832 -0.018508151370473427 -0.11112169838747407 0.03409129063606419 0.011222040015177832 0.03409129063606419 -0.011539401780041255" free_energy=-260.63850842 pbc="T T T"
K        0.26145945       5.73042771       2.98244400      44.73082750     142.02816200     -32.40784180
Fe       4.50000000       5.09999994       5.69999987      -0.20792589       0.03655835      -0.78562845
Fe       7.09239438       5.96413134       4.83586841      -0.77783124      -0.25768323      -0.61481551
Fe       3.38096043       7.59298707       4.83586841       0.74701604      -0.36221685       0.08080051
Fe       5.97335526       8.45711802       3.97173694      -3.97602973      -4.61448893       5.88588669
Fe       5.12792109       1.48797369       3.97173694       0.16695426       1.35531091      -0.37479886
Fe       7.72864056       2.37820581       3.08788964      -0.95731925      -0.34016687      -0.22319586
Fe       1.41648714       3.11682888       3.97173694       0.56104917      -0.62395926       1.02049035
Fe       3.51776340       2.86192107       5.26793434       0.06595987       0.28502532      -0.22815356
Fe       4.00888161       3.98096064       3.10760548       0.43462730       0.43995073       0.70793704
Fe       6.11015796       3.72605256       4.40380287      -0.08965689       0.33531049       0.15360880
Fe       6.60127644       4.84509231       2.24347402      -0.49600504      -0.10248891       0.32903967
Fe       8.92465020       4.53376917       3.27064436     -42.26720629    -145.10188641      35.11806775
Fe       2.39872383       5.35490802       4.40380287       1.01806558      -0.02933527       0.37366776
Fe       2.88984231       6.47394750       2.24347402       1.33629755       0.17674895      -0.97639530
Fe       4.99111839       6.21903942       3.53967121       0.12497648       0.00324088       0.35083178
Fe       5.56587171       7.24363425       1.22674518       0.29864600      -0.10494333       1.40315313
Fe       7.86815496       6.96334122       2.62111662      -4.83645682       3.70737043      -0.37078887
Fe       7.99752762       8.12905218       0.67159557       0.71089452       0.49769234      -0.42978658
Fe       1.46589921       7.89062211       3.54283269      -0.11386080      -1.78479415       1.70166560
Fe       1.55263212       8.92666341       1.62856420      -0.41924910      -0.97601453      -1.55617470
Fe       3.65327289       8.89995483       2.87544113       0.16290550      -2.93847966       0.71140573
Fe       2.28944871       0.87056379      19.43269695       1.05523614       0.65695823      -0.27567894
Fe       4.77825021       0.53399673       1.10451018       0.29434842       0.70648380      -1.10350223
Fe       6.95057436       0.10925775       2.64521972       4.11649391       4.16269350      -6.11865509
Fe       7.21814778       1.48683096       0.52040764       0.34379060      -0.66063745      -0.42382103
Fe       0.56111895       0.95439861       3.46189626      -0.93358627       0.59399534       0.64178376
Fe       0.67938147       2.29188465       1.44839668       2.65817355      -3.19019859       0.56104588
Fe       2.97321417       1.93190013       2.86333107      -0.30661732       0.12066126      -1.22127547
Fe       3.61155798       3.00329901       0.54195431       0.22334550      -3.76113630      -2.01670618
Fe       5.60974599       2.62283373       1.58107398       0.63166794       0.84270006       1.69513663
Fe       8.22198960       3.52588491       1.03602797      -2.38558749       2.92583963      -1.33875059
Fe       2.15873910       4.04865360       1.52070853      -2.37114612       2.68802431       1.37939650
Fe       4.54023792       4.86627867       0.93139278       0.71678616       3.06255179      -0.11164169
Fe       7.12327050       5.96512269       0.13683760       0.26809573      -0.60254691       0.09851961
Fe       0.79358328       6.43037895       0.90504548       0.54004904       0.60821257      -1.61309144
Fe       3.66534972       7.50795075       0.03815297      -1.26568088       0.20623365       0.37908110
N        7.88040594       0.31329243       7.68920034       4.38602234       6.54647307      -0.61567755
N        5.49316260       3.53098872       8.64757057      -1.39942925       0.73532805       0.54416044
N        4.54539348       4.03133346       9.00568295       1.40697008      -0.72825261      -0.50142282
N        8.78733324       1.73721195       7.43323179      -1.89059610      -3.36671277       1.16750955
N        0.96654375       3.15419193       8.04714593      -2.30501471      -3.17558359      -0.99538574
47
Lattice="9.0 0.0 0.0 0.0 9.0 0.0 0.0 0.0 19.5" Properties=species:S:1:pos:R:3:forces:R:3 energy=-302.32094195 stress="-0.04051259932727637 0.03747989823994317 0.0623733356127125 0.03747989823994317 -0.044006808266116484 -0.05192207573124013 0.0623733356127125 -0.05192207573124013 -0.09594365070265791" free_energy=-302.31871219 pbc="T T T"
K        7.40394594       6.00131511       6.19956168       0.19591661       0.84426204       4.94139399
Fe       4.69999980       5.09999994       6.49999993      -1.18219025      -0.36592678      -0.93488813
Fe       1.99605402       4.19868468       6.80043838       0.10625445       0.19012812      -0.74762629
Fe       1.04612256       6.74804070       5.89912323       1.46772201       0.24213802      -0.59784549
Fe       3.75006843       7.64935641       5.59868478       0.10354601      -0.98002869       0.37578303
Fe       6.45401430       8.55067158       5.29824633      -1.24746359      -1.18900081       1.61279074
Fe       2.96219106       0.69939702       4.99780808      -0.27851154       2.03454224       0.79260048
Fe       5.66613675       1.60071228       4.69736962      -0.10113089       1.90290355       0.08540119
Fe       8.37008289       2.50202754       4.39693117      -0.70437497      -0.64347665       0.03851812
Fe       1.12714956       1.99838313       6.04934206       0.27247951       0.23306986      -0.58404490
Fe       2.01225951       3.24875304       4.09649234       0.09230930       0.00593048       0.31194539