42
Lattice="9.0 0.0 0.0 0.0 9.0 0.0 0.0 0.0 19.6" Properties=species:S:1:pos:R:3:forces:R:3 center_index_in_parent=0 center_index=0 movable_indices="5 11 12 16 17 18 19 20 21 22 23 24 25 26 27 28 31 29 30 32 35 36 37 38 39 40 41" sub_indices_in_parent="0 1 4 5 16 17 20 21 22 23 24 25 31 32 33 34 35 36 37 43 44 45 205 79 80 81 89 90 91 92 93 2012 95 2651 2652 106 108 110 2419 2420 121 123" unc_ori=60.78224563598633 unc_opt=34.70726776123047 energy=0.0 stress="0.0 0.0 0.0 0.0 0.0 0.0 0.0 0.0 0.0" pbc="T T T"
Fe       4.50000000       5.09999990       5.69999981       0.00000000       0.00000000       0.00000000
Fe       7.09239435       5.96413136       4.83586836       0.00000000       0.00000000       0.00000000
Fe       3.38096046       7.59298706       4.83586836       0.00000000       0.00000000       0.00000000
Fe       5.97335529       8.45711803       3.97173691       0.00000000       0.00000000       0.00000000
Fe       5.12792110       1.48797369       3.97173691       0.00000000       0.00000000       0.00000000
Fe       7.72864056       2.37820578       3.08788967       0.00000000       0.00000000       0.00000000
Fe       1.41648710       3.11682892       3.97173691       0.00000000       0.00000000       0.00000000
Fe       3.51776338       2.86192107       5.26793432       0.00000000       0.00000000       0.00000000
Fe       4.00888157       3.98096061       3.10760546       0.00000000       0.00000000       0.00000000
Fe       6.11015797       3.72605252       4.40380287       0.00000000       0.00000000       0.00000000
Fe       6.60127640       4.84509230       2.24347401       0.00000000       0.00000000       0.00000000
Fe       8.92465019       4.53376913       3.27064443       0.00000000       0.00000000       0.00000000
K        0.26145944       5.73042774       2.98244405       0.00000000       0.00000000       0.00000000
Fe       2.39872384       5.35490799       4.40380287       0.00000000       0.00000000       0.00000000
Fe       2.88984227       6.47394753       2.24347401       0.00000000       0.00000000       0.00000000
Fe       4.99111843       6.21903944       3.53967118       0.00000000       0.00000000       0.00000000
Fe       5.56587172       7.24363422       1.22674513       0.00000000       0.00000000       0.00000000
Fe       7.86815500       6.96334124       2.62111664       0.00000000       0.00000000       0.00000000
Fe       7.99752760       8.12905216       0.67159557       0.00000000       0.00000000       0.00000000
Fe       1.46589923       7.89062214       3.54283261       0.00000000       0.00000000       0.00000000
Fe       1.55263209       8.92666340       1.62856412       0.00000000       0.00000000       0.00000000
Fe       3.65327287       8.89995480       2.87544107       0.00000000       0.00000000       0.00000000
Fe       2.28944874       0.87056375      -0.16730304       0.00000000       0.00000000       0.00000000
Fe       4.77825022       0.53399676       1.10451019       0.00000000       0.00000000       0.00000000
Fe       6.95057440       0.10925772       2.64521980       0.00000000       0.00000000       0.00000000
Fe       7.21814775       1.48683095       0.52040756       0.00000000       0.00000000       0.00000000
Fe       0.56111896       0.95439857       3.46189618       0.00000000       0.00000000       0.00000000
Fe       0.67938143       2.29188466       1.44839668       0.00000000       0.00000000       0.00000000
Fe       2.97321415       1.93190014       2.86333108       0.00000000       0.00000000       0.00000000
Fe       3.61155796       3.00329900       0.54195428       0.00000000       0.00000000       0.00000000
Fe       5.60974598       2.62283373       1.58107400       0.00000000       0.00000000       0.00000000
N        7.88040590       0.31329244       7.68920040       0.00000000       0.00000000       0.00000000
Fe       8.22198963       3.52588487       1.03602803       0.00000000       0.00000000       0.00000000
N        5.49316263       3.53098869       8.64757061       0.00000000       0.00000000       0.00000000
N        4.54539347       4.03133345       9.00568295       0.00000000       0.00000000       0.00000000
Fe       2.15873909       4.04865360       1.52070844       0.00000000       0.00000000       0.00000000
Fe       4.54023790       4.86627865       0.93139279       0.00000000       0.00000000       0.00000000
Fe       7.12327051       5.96512270       0.13683769       0.00000000       0.00000000       0.00000000
N       -0.21266674       1.73721194       7.43323183       0.00000000       0.00000000       0.00000000
N        0.96654379       3.15419197       8.04714584       0.00000000       0.00000000       0.00000000
Fe       0.79358327       6.43037891       0.90504557       0.00000000       0.00000000       0.00000000
Fe       3.66534972       7.50795078       0.03815289       0.00000000       0.00000000       0.00000000
47
Lattice="9.0 0.0 0.0 0.0 9.0 0.0 0.0 0.0 19.5" Properties=species:S:1:pos:R:3:forces:R:3 center_index_in_parent=1 center_index=0 movable_indices="6 8 9 15 16 20 21 22 23 24 25 26 27 28 29 30 31 32 33 34 35 36 38 39 40 41 42 43 44 45 46" sub_indices_in_parent="1 0 2 4 5 6 16 17 18 21 22 23 24 25 26 32 33 34 35 36 37 38 44 45 47 205 207 81 82 83 209 91 92 93 94 95 96 2279 106 107 108 109 110 112 123 125 127" unc_ori=35.43714904785156 unc_opt=35.43714904785156 energy=0.0 stress="0.0 0.0 0.0 0.0 0.0 0.0 0.0 0.0 0.0" pbc="T T T"
Fe       4.69999981       5.09999990       6.50000000       0.00000000       0.00000000       0.00000000
Fe       1.99605405       4.19868469       6.80043840       0.00000000       0.00000000       0.00000000
K        7.40394592       6.00131512       6.19956160       0.00000000       0.00000000       0.00000000
Fe       1.04612255       6.74804068       5.89912319       0.00000000       0.00000000       0.00000000
Fe       3.75006843       7.64935637       5.59868479       0.00000000       0.00000000       0.00000000
Fe       6.45401430       8.55067158       5.29824638       0.00000000       0.00000000       0.00000000
Fe       2.96219110       0.69939703       4.99780798       0.00000000       0.00000000       0.00000000
Fe       5.66613674       1.60071230       4.69736958       0.00000000       0.00000000       0.00000000
Fe       8.37008286       2.50202751       4.39693117       0.00000000       0.00000000       0.00000000
Fe       1.12714958       1.99838316       6.04934216       0.00000000       0.00000000       0.00000000
Fe       2.01225948       3.24875307       4.09649229       0.00000000       0.00000000       0.00000000
Fe       3.83109546       2.89969850       5.74890375       0.00000000       0.00000000       0.00000000
Fe       4.71620560       4.15006828       3.79605412       0.00000000       0.00000000       0.00000000
Fe       6.53504133       3.80101371       5.44846535       0.00000000       0.00000000       0.00000000
Fe       7.42015123       5.05138397       3.49561572       0.00000000       0.00000000       0.00000000
Fe       0.17721808       4.54773951       5.14802694       0.00000000       0.00000000       0.00000000
Fe       1.06232798       5.79810953       3.19517732       0.00000000       0.00000000       0.00000000
Fe       2.88116407       5.44905472       4.84758854       0.00000000       0.00000000       0.00000000
Fe       3.76627398       6.69942474       2.89473867       0.00000000       0.00000000       0.00000000
Fe       5.58510971       6.35036993       4.54715014       0.00000000       0.00000000       0.00000000
Fe       6.47021961       7.60073996       2.59430027       0.00000000       0.00000000       0.00000000
Fe       8.28905582       7.25168514       4.24671173       0.00000000       0.00000000       0.00000000
Fe       0.11239644       8.34746552       2.29386187       0.00000000       0.00000000       0.00000000
Fe       1.93123245       7.99841070       3.94627333       0.00000000       0.00000000       0.00000000
Fe       4.63517857       8.89972591       3.64583492       0.00000000       0.00000000       0.00000000
Fe       1.15956044       0.09852014       0.64145052       0.00000000       0.00000000       0.00000000
Fe       3.86350632       0.99983543       0.34101209       0.00000000       0.00000000       0.00000000
Fe       5.68234253       0.65078080       1.99342346       0.00000000       0.00000000       0.00000000
Fe       7.50117826       0.30172613       3.64583492       0.00000000       0.00000000       0.00000000
Fe       8.38628864       1.55209613       1.69298506       0.00000000       0.00000000       0.00000000
Fe       6.56745243       1.90115070       0.04057366       0.00000000       0.00000000       0.00000000
Fe       1.14335501       1.04845166       3.34539652       0.00000000       0.00000000       0.00000000
Fe       2.02846479       2.29882169       1.39254665       0.00000000       0.00000000       0.00000000
Fe       3.84730101       1.94976699       3.04495811       0.00000000       0.00000000       0.00000000
Fe       4.73241091       3.20013690       1.09210813       0.00000000       0.00000000       0.00000000
Fe       6.55124664       2.85108232       2.74451947       0.00000000       0.00000000       0.00000000
Fe       7.43635654       4.10145235       0.79166973       0.00000000       0.00000000       0.00000000
N        6.05263472       5.00855112       1.17511451       0.00000000       0.00000000       0.00000000
Fe       0.19342348       3.59780788       2.44408107       0.00000000       0.00000000       0.00000000
Fe       1.07853341       4.84817791       0.49123132       0.00000000       0.00000000       0.00000000
Fe       2.89736938       4.49912310       2.14364266       0.00000000       0.00000000       0.00000000
Fe       3.78247929       5.74949312       0.19079289       0.00000000       0.00000000       0.00000000
Fe       5.60131550       5.40043831       1.84320426       0.00000000       0.00000000       0.00000000
Fe       8.30526161       6.30175352       1.54276586       0.00000000       0.00000000       0.00000000
Fe       1.94743788       7.04847908       1.24232745       0.00000000       0.00000000       0.00000000
Fe       4.65138388       7.94979477       0.94188899       0.00000000       0.00000000       0.00000000
Fe       7.35532951       8.85110950       0.64145052       0.00000000       0.00000000       0.00000000
49
Lattice="9.0 0.0 0.0 0.0 9.0 0.0 0.0 0.0 19.5" Properties=species:S:1:pos:R:3:forces:R:3 center_index_in_parent=2 center_index=0 movable_indices="3 7 8 10 11 17 18 22 23 24 25 26 27 28 29 30 31 32 33 34 35 36 37 39 40 41 42 43 44 46 47 48" sub_indices_in_parent="2 1 3 129 5 6 7 9 17 18 22 23 24 25 26 27 28 34 35 36 37 38 39 45 46 47 48 49 209 83 211 92 93 94 95 96 97 98 2279 108 110 111 112 113 2681 2682 123 125 127" unc_ori=36.10120391845703 unc_opt=36.10120391845703 energy=0.0 stress="0.0 0.0 0.0 0.0 0.0 0.0 0.0 0.0 0.0" pbc="T T T"
K        5.09999990       4.50000000       6.50000000       0.00000000       0.00000000       0.00000000
Fe       2.39605403       3.59868479       6.19956160       0.00000000       0.00000000       0.00000000
Fe       7.80394602       5.40131521       6.80043840       0.00000000       0.00000000       0.00000000
Fe       8.83690834       8.61163616       1.54276586       0.00000000       0.00000000       0.00000000
Fe       1.62638557       6.20812845       5.29824638       0.00000000       0.00000000       0.00000000
Fe       4.33033133       7.10944366       5.59868479       0.00000000       0.00000000       0.00000000
K        7.03427744       8.01075935       5.89912319       0.00000000       0.00000000       0.00000000
Fe       0.85671717       8.81757259       4.39693117       0.00000000       0.00000000       0.00000000
Fe       3.72271705       0.21957238       4.39693117       0.00000000       0.00000000       0.00000000
Fe       6.42666292       1.12088764       4.69736958       0.00000000       0.00000000       0.00000000
Fe       0.24910277       1.92770088       3.19517732       0.00000000       0.00000000       0.00000000
Fe       1.70741272       1.45847094       5.14802694       0.00000000       0.00000000       0.00000000
Fe       2.95304871       2.82901621       3.49561572       0.00000000       0.00000000       0.00000000
Fe       4.41135836       2.35978627       5.44846535       0.00000000       0.00000000       0.00000000
Fe       5.65699482       3.73033142       3.79605412       0.00000000       0.00000000       0.00000000
Fe       7.11530447       3.26110148       5.74890375       0.00000000       0.00000000       0.00000000
Fe       8.36094093       4.63164663       4.09649229       0.00000000       0.00000000       0.00000000
Fe       0.93774420       4.06791496       4.24671173       0.00000000       0.00000000       0.00000000
Fe       2.18338013       5.43845987       2.59430027       0.00000000       0.00000000       0.00000000
Fe       3.64169002       4.96923018       4.54715014       0.00000000       0.00000000       0.00000000
Fe       4.88732624       6.33977556       2.89473867       0.00000000       0.00000000       0.00000000
Fe       6.34563589       5.87054539       4.84758854       0.00000000       0.00000000       0.00000000
Fe       7.59127188       7.24109077       3.19517732       0.00000000       0.00000000       0.00000000
Fe       0.16807573       6.67735863       3.34539652       0.00000000       0.00000000       0.00000000
Fe       1.41371179       8.04790401       1.69298506       0.00000000       0.00000000       0.00000000
Fe       2.87202168       7.57867384       3.64583492       0.00000000       0.00000000       0.00000000
Fe       4.11765766       8.94921875       1.99342346       0.00000000       0.00000000       0.00000000
Fe       5.57596731       8.47998905       3.94627333       0.00000000       0.00000000       0.00000000
Fe       5.52534771       0.82044923       0.04057366       0.00000000       0.00000000       0.00000000
Fe       6.98365784       0.35121921       1.99342346       0.00000000       0.00000000       0.00000000
Fe       8.22929382       1.72176456       0.34101209       0.00000000       0.00000000       0.00000000
Fe       0.80609739       1.15803242       0.49123132       0.00000000       0.00000000       0.00000000
Fe       2.26440716       0.68880242       2.44408107       0.00000000       0.00000000       0.00000000
Fe       3.51004338       2.05934787       0.79166973       0.00000000       0.00000000       0.00000000
Fe       4.96835327       1.59011769       2.74451947       0.00000000       0.00000000       0.00000000
Fe       6.21398926       2.96066308       1.09210813       0.00000000       0.00000000       0.00000000
Fe       7.67229891       2.49143314       3.04495811       0.00000000       0.00000000       0.00000000
Fe       8.91793537       3.86197829       1.39254665       0.00000000       0.00000000       0.00000000
N        2.99559069       3.25620317       1.05542886       0.00000000       0.00000000       0.00000000
Fe       1.49473882       3.29824615       1.54276586       0.00000000       0.00000000       0.00000000
Fe       4.19868469       4.19956160       1.84320426       0.00000000       0.00000000       0.00000000
Fe       5.44432068       5.57010698       0.19079289       0.00000000       0.00000000       0.00000000
Fe       6.90263081       5.10087681       2.14364266       0.00000000       0.00000000       0.00000000
Fe       8.14826679       6.47142220       0.49123132       0.00000000       0.00000000       0.00000000
N        2.26599407       7.76723671       8.31728268       0.00000000       0.00000000       0.00000000
N        3.23252583       7.41675282       8.78614521       0.00000000       0.00000000       0.00000000
Fe       0.72507030       5.90769005       0.64145052       0.00000000       0.00000000       0.00000000
Fe       3.42901611       6.80900526       0.94188899       0.00000000       0.00000000       0.00000000
Fe       6.13296223       7.71032095       1.24232745       0.00000000       0.00000000       0.00000000
41
Lattice="9.0 0.0 0.0 0.0 9.2 0.0 0.0 0.0 19.6" Properties=species:S:1:pos:R:3:forces:R:3 center_index_in_parent=3 center_index=0 movable_indices="1 5 6 7 9 10 16 17 18 22 23 24 25 26 27 28 29 30 31 32 33 34 35 36 39 40" sub_indices_in_parent="3 129 2 6 7 2055 17 18 19 24 25 26 27 28 29 30 35 36 37 38 39 40 41 47 48 49 83 85 86 93 95 97 98 99 110 112 114 2037 2038 2682 127" unc_ori=43.393775939941406 unc_opt=43.393775939941406 energy=0.0 stress="0.0 0.0 0.0 0.0 0.0 0.0 0.0 0.0 0.0" pbc="T T T"
Fe       5.09999990       5.30000019       5.69999981       0.00000000       0.00000000       0.00000000
Fe       7.09183407       8.82994461       0.94727665       0.00000000       0.00000000       0.00000000
K        2.50760555       4.43586826       4.83586836       0.00000000       0.00000000       0.00000000
Fe       1.90704489       7.10168171       3.97173691       0.00000000       0.00000000       0.00000000
K        4.49943924       7.96581316       4.83586836       0.00000000       0.00000000       0.00000000
N        8.94031525       8.64707851       6.04025030       0.00000000       0.00000000       0.00000000
Fe       1.58008981       0.30536327       2.24347401       0.00000000       0.00000000       0.00000000
Fe       4.17248440       1.16949475       3.10760546       0.00000000       0.00000000       0.00000000
Fe       6.76487875       2.03362632       3.97173691       0.00000000       0.00000000       0.00000000
Fe       0.97952926       2.97117639       1.37934244       0.00000000       0.00000000       0.00000000
Fe       2.04384756       2.37061596       3.53967118       0.00000000       0.00000000       0.00000000
Fe       3.57192373       3.83530784       2.24347401       0.00000000       0.00000000       0.00000000
Fe       4.63624239       3.23474741       4.40380287       0.00000000       0.00000000       0.00000000
Fe       6.16431856       4.69943953       3.10760546       0.00000000       0.00000000       0.00000000
Fe       7.22863674       4.09887886       5.26793432       0.00000000       0.00000000       0.00000000
Fe       8.75671291       5.56357098       3.97173691       0.00000000       0.00000000       0.00000000
Fe       0.37896875       5.63698959       0.51521093       0.00000000       0.00000000       0.00000000
Fe       1.44328713       5.03642893       2.67553973       0.00000000       0.00000000       0.00000000
Fe       2.97136331       6.50112104       1.37934244       0.00000000       0.00000000       0.00000000
Fe       4.03568172       5.90056038       3.53967118       0.00000000       0.00000000       0.00000000
Fe       5.56375790       7.36525249       2.24347401       0.00000000       0.00000000       0.00000000
Fe       6.62807608       6.76469183       4.40380287       0.00000000       0.00000000       0.00000000
K        8.15615273       8.22938442       3.10760546       0.00000000       0.00000000       0.00000000
Fe       0.84272653       7.70224237       1.81140816       0.00000000       0.00000000       0.00000000
Fe       2.37080264       9.16693401       0.51521093       0.00000000       0.00000000       0.00000000
Fe       3.43512106       8.56637383       2.67553973       0.00000000       0.00000000       0.00000000
Fe       5.23680258       0.56893426       0.51521093       0.00000000       0.00000000       0.00000000
Fe       7.82919741       1.43306577       1.37934244       0.00000000       0.00000000       0.00000000
Fe       8.89351559       0.83250523       3.53967118       0.00000000       0.00000000       0.00000000
Fe       0.51577145       0.90592384       0.08314516       0.00000000       0.00000000       0.00000000
Fe       3.10816598       1.77005529       0.94727665       0.00000000       0.00000000       0.00000000
Fe       5.70056057       2.63418674       1.81140816       0.00000000       0.00000000       0.00000000
Fe       7.22863674       4.09887886       0.51521093       0.00000000       0.00000000       0.00000000
Fe       8.29295540       3.49831843       2.67553973       0.00000000       0.00000000       0.00000000
Fe       2.50760555       4.43586826       0.08314516       0.00000000       0.00000000       0.00000000
Fe       5.09999990       5.30000019       0.94727665       0.00000000       0.00000000       0.00000000
Fe       7.69239473       6.16413164       1.81140816       0.00000000       0.00000000       0.00000000
N        4.38657427       6.08550453       9.18955231       0.00000000       0.00000000       0.00000000
N        4.78119469       5.09795427       8.80761814       0.00000000       0.00000000       0.00000000
N        0.22284447       7.21352530       6.90609837       0.00000000       0.00000000       0.00000000
Fe       4.49943924       7.96581316       0.08314516       0.00000000       0.00000000       0.00000000
53
Lattice="9.0 0.0 0.0 0.0 9.399999999999999 0.0 0.0 0.0 20.0" Properties=species:S:1:pos:R:3:forces:R:3 center_index_in_parent=4 center_index=0 movable_indices="6 7 8 9 10 12 13 14 20 21 25 26 27 30 31 32 33 34 35 36 37 38 39 40 41 42 43 44 45 47 48 49 50 51 52" sub_indices_in_parent="4 0 1 5 8 9 136 138 140 20 21 22 23 24 25 31 32 33 34 35 36 42 43 44 45 46 47 48 2605 2606 54 56 58 90 92 2652 94 95 224 105 106 107 108 109 110 1133 1134 243 2420 121 122 123 125" unc_ori=49.00803756713867 unc_opt=24.928699493408203 energy=0.0 stress="0.0 0.0 0.0 0.0 0.0 0.0 0.0 0.0 0.0" pbc="T T T"
Fe       4.50000000       4.69999981       6.50000000       0.00000000       0.00000000       0.00000000
Fe       4.91348600       1.87994289       6.80043840       0.00000000       0.00000000       0.00000000
Fe       7.61743164       2.18038130       5.89912319       0.00000000       0.00000000       0.00000000
Fe       7.20394611       5.00043821       5.59868479       0.00000000       0.00000000       0.00000000
K        4.08651400       7.52005720       6.19956160       0.00000000       0.00000000       0.00000000
Fe       6.79046011       7.82049561       5.29824638       0.00000000       0.00000000       0.00000000
Fe       1.66783869       8.23437023       2.75289130       0.00000000       0.00000000       0.00000000
Fe       4.19260359       8.68096066       1.76159322       0.00000000       0.00000000       0.00000000
Fe       6.36098099       8.54903412       0.60233223       0.00000000       0.00000000       0.00000000
Fe       0.91472745       1.39009631       4.84106541       0.00000000       0.00000000       0.00000000
Fe       2.93018889       0.11776860       6.54547119       0.00000000       0.00000000       0.00000000
Fe       4.05811357       1.46645701       4.09649229       0.00000000       0.00000000       0.00000000
Fe       6.14152861       0.81231278       5.36949158       0.00000000       0.00000000       0.00000000
Fe       6.41589069       1.59198594       3.07001042       0.00000000       0.00000000       0.00000000
Fe       8.81199169       1.07011604       3.75920010       0.00000000       0.00000000       0.00000000
K        0.94068164       3.98607564       4.69736958       0.00000000       0.00000000       0.00000000
Fe       2.92708373       2.93300939       5.74890375       0.00000000       0.00000000       0.00000000
Fe       3.64462757       4.28651428       3.79605412       0.00000000       0.00000000       0.00000000
Fe       5.63102961       3.23344779       4.84758854       0.00000000       0.00000000       0.00000000
Fe       6.34857368       4.58695269       2.89473867       0.00000000       0.00000000       0.00000000
Fe       8.28509903       3.47464824       3.69417500       0.00000000       0.00000000       0.00000000
Fe       0.62056655       6.87984037       4.22381735       0.00000000       0.00000000       0.00000000
Fe       2.51359797       5.75306654       5.44846535       0.00000000       0.00000000       0.00000000
Fe       3.23114181       7.10657120       3.49561572       0.00000000       0.00000000       0.00000000
Fe       5.21754360       6.05350494       4.54715014       0.00000000       0.00000000       0.00000000
Fe       5.89936018       7.52081728       2.43513346       0.00000000       0.00000000       0.00000000
Fe       7.85196877       6.51574326       3.50901175       0.00000000       0.00000000       0.00000000
Fe       8.68096828       7.45852613       1.62973535       0.00000000       0.00000000       0.00000000
N        4.28156614       6.45090151       9.75699425       0.00000000       0.00000000       0.00000000
N        3.56902623       5.97644472       0.49457946       0.00000000       0.00000000       0.00000000
Fe       2.52978015       9.05929089       4.67857695       0.00000000       0.00000000       0.00000000
Fe       4.41308880       8.90494823       3.90778899       0.00000000       0.00000000       0.00000000
Fe       7.23835659       8.94510269       3.52885771       0.00000000       0.00000000       0.00000000
Fe       0.85287505       0.89465290       2.38892317       0.00000000       0.00000000       0.00000000
Fe       3.04665589       1.17099023       1.69072640       0.00000000       0.00000000       0.00000000
N        4.26083183       0.34913164       9.97548294       0.00000000       0.00000000       0.00000000
Fe       5.58928633       1.45783246       0.59088296       0.00000000       0.00000000       0.00000000
Fe       7.94497967       0.56519413       1.37438226       0.00000000       0.00000000       0.00000000
Fe       1.43106878       2.12774849       0.32155627       0.00000000       0.00000000       0.00000000
Fe       0.32068849       3.86777234       2.13541102       0.00000000       0.00000000       0.00000000
Fe       2.42530847       2.44721341       3.17898130       0.00000000       0.00000000       0.00000000
Fe       2.60651994       3.74664855       1.06037366       0.00000000       0.00000000       0.00000000
Fe       4.71073866       2.56813097       2.29589963       0.00000000       0.00000000       0.00000000
Fe       5.63263178       4.42038488       0.13348976       0.00000000       0.00000000       0.00000000
Fe       7.41128778       3.10049295       1.17342973       0.00000000       0.00000000       0.00000000
H        0.43691814       3.99689674       8.69319916       0.00000000       0.00000000       0.00000000
H        0.48235831       4.00466204       8.21332932       0.00000000       0.00000000       0.00000000
Fe       0.79182583       4.79521847      -0.01877409       0.00000000       0.00000000       0.00000000
N        0.87567729       0.81961489       9.24217892       0.00000000       0.00000000       0.00000000
Fe       1.55770350       5.27873516       2.68834138       0.00000000       0.00000000       0.00000000
Fe       2.15288258       6.86976719       0.94380331       0.00000000       0.00000000       0.00000000
Fe       4.42671299       5.60496426       1.87527215       0.00000000       0.00000000       0.00000000
Fe       7.03596067       5.87103796       0.94174176       0.00000000       0.00000000       0.00000000
75
Lattice="10.4 0.0 0.0 0.0 10.200000000000001 0.0 0.0 0.0 20.9" Properties=species:S:1:pos:R:3:forces:R:3 center_index_in_parent=5 center_index=0 movable_indices="65 66 9 67 68 69 70 71 10 11 12 14 15 16 17 23 24 25 26 33 34 30 31 32 35 36 37 38 72 39 40 41 42 43 44 45 46 47 73 74 48 49 50 51 52 53 54 55 58 59 60 61 62 63 64" sub_indices_in_parent="5 0 1 2 4 6 8 9 10 11 21 22 23 24 25 26 27 32 33 34 35 36 37 38 39 43 44 45 46 47 48 49 50 2605 2606 55 56 58 60 1625 1626 92 2652 94 95 96 97 98 106 107 108 109 110 111 112 113 2681 2682 121 122 123 124 125 126 127 137 138 139 140 142 1681 1682 2242 2279 2280" unc_ori=38.26303482055664 unc_opt=38.26303482055664 energy=0.0 stress="0.0 0.0 0.0 0.0 0.0 0.0 0.0 0.0 0.0" pbc="T T T"
Fe       4.90000010       4.90000010       6.30000019       0.00000000       0.00000000       0.00000000
Fe       2.41782928       1.75820327       6.92916870       0.00000000       0.00000000       0.00000000
Fe       5.24908876       2.07278752       6.61458445       0.00000000       0.00000000       0.00000000
K        8.08034801       2.38737202       6.30000019       0.00000000       0.00000000       0.00000000
Fe       2.06874061       4.58541584       6.61458445       0.00000000       0.00000000       0.00000000
Fe       7.73125935       5.21458435       5.98541546       0.00000000       0.00000000       0.00000000
K        1.71965218       7.41262817       6.30000019       0.00000000       0.00000000       0.00000000
Fe       4.55091143       7.72721243       5.98541546       0.00000000       0.00000000       0.00000000
K        7.38217068       8.04179668       5.67083120       0.00000000       0.00000000       0.00000000
Fe      10.21343040       8.35638142       5.35624695       0.00000000       0.00000000       0.00000000
Fe       1.03884542       0.01276060       5.82812357       0.00000000       0.00000000       0.00000000
Fe       2.14203238       1.40911472       4.09790945       0.00000000       0.00000000       0.00000000
Fe       3.87010479       0.32734498       5.51353931       0.00000000       0.00000000       0.00000000
Fe       4.97329187       1.72369909       3.78332496       0.00000000       0.00000000       0.00000000
Fe       6.70136404       0.64192933       5.19895458       0.00000000       0.00000000       0.00000000
Fe       7.80455112       2.03828335       3.46874070       0.00000000       0.00000000       0.00000000
Fe       9.53262329       0.95651370       4.88437033       0.00000000       0.00000000       0.00000000
Fe       0.68975693       2.83997297       5.51353931       0.00000000       0.00000000       0.00000000
Fe       1.79294395       4.23632717       3.78332496       0.00000000       0.00000000       0.00000000
Fe       3.52101612       3.15455747       5.19895458       0.00000000       0.00000000       0.00000000
Fe       4.62420321       4.55091143       3.46874070       0.00000000       0.00000000       0.00000000