8
Lattice="6.2 0.0 0.0 0.0 6.0 0.0 0.0 0.0 6.1" Properties=species:S:1:pos:R:3:forces:R:3 energy=-46.69160539 stress="0.017577804241044135 0.003341502591222932 -0.0038058179421912586 0.003341502591222932 0.013257966290503995 -0.0035951192366818494 -0.0038058179421912586 -0.0035951192366818494 0.010987554637521773" free_energy=-46.69160539 pbc="T T T"
H        3.00000001       4.00000002       3.90000011      -0.09195334       0.44852319       0.05850957
H        3.14435840       3.28503348       3.79324291       0.08400158      -0.46609004      -0.07704350
H        3.95353937       5.10920382       0.71540452      -0.46331924       0.10051252      -0.00309765
H        4.67220164       4.94527290       0.70734136       0.46843051      -0.10548181      -0.01991878
N        6.19723703       0.35389524       3.23263504      -1.71355056      -0.36377860       0.85845744
N        5.13249299       0.21018144       3.58266524       1.65814880       0.28251367      -0.57018152
N        0.91354811       1.55464542       0.89339722       0.64789246       1.38136316      -1.40579792
N        1.27066991       2.37335202       0.20127127      -0.58965021      -1.27756209       1.15907237
8
Lattice="6.1 0.0 0.0 0.0 6.5 0.0 0.0 0.0 6.1" Properties=species:S:1:pos:R:3:forces:R:3 energy=-36.56148052 stress="0.03250268461288485 0.00015808644734407052 0.013670931129342817 0.00015808644734407052 0.008391982934619539 -0.002266118973941278 0.013670931129342817 -0.002266118973941278 0.01066778543520737" free_energy=-36.56148052 pbc="T T T"
H        4.30000017       3.70000007       4.30000017       0.20083168      -0.24582766      -0.39284475
H        1.87500940       1.15630509       1.92132664      -0.46289673       0.16442383      -0.24776680
H        1.20699010       1.36501326       1.60870206       0.51791749      -0.12149193       0.16723013
H        1.97570814       5.93422648       4.90315438      -2.14452862      -1.63599396      -0.14917427
H        1.29005716       5.41927340       4.84361075       2.19968473       1.60065680       0.21571088
H        4.01591493       4.05352928       4.88114259      -0.18460189       0.21829225       0.37882439
N        4.52408745       0.73113976       2.91427585       5.20211752      -1.06630879       2.85923669
N        5.52656175       0.52209963       3.47024059      -5.32852417       1.08624947      -2.83121627
7
Lattice="6.4 0.0 0.0 0.0 6.4 0.0 0.0 0.0 6.5" Properties=species:S:1:pos:R:3:forces:R:3 energy=-34.66762032 stress="0.07903862521522072 -0.007423765941648174 0.024089476359184684 -0.007423765941648174 0.05474432658130072 0.027192414833918915 0.024089476359184684 0.027192414833918915 0.03211569523733747" free_energy=-34.68172506 pbc="T T T"
H        3.90000013       4.00000000       4.40000008       0.01755677      -0.47884220       0.21530636
H        0.00179872       4.81215904       3.19149064       0.01444010       0.05685646      -0.05841472
H        3.86672090       4.67435456       4.10410787      -0.01495911       0.47359324      -0.21540914
N        4.57423974       6.32655526       1.02461554     -13.02670811      -3.12435916      -7.04129679
N        3.31729222       6.02833651       0.34840741      13.10025826       3.08227913       7.03071108
N        0.95282054       2.23209952       2.82744741       5.51313146     -11.30048071      -4.73790895
N        1.48564051       1.15301920       2.36887482      -5.60371936      11.29095324       4.80701215
6
Lattice="6.0 0.0 0.0 0.0 6.0 0.0 0.0 0.0 6.0" Properties=species:S:1:pos:R:3:forces:R:3 energy=-30.13373747 stress="0.010765739292455416 0.0031864043412709875 -0.003462820314547933 0.0031864043412709875 0.0044078885425713485 -0.0035404737070546077 -0.003462820314547933 -0.0035404737070546077 0.00826828416918565" free_energy=-30.13373747 pbc="T T T"
H        1.76301822       4.81078770       0.15475230       0.19229680      -0.17913965      -0.38755454
H        1.45719078       5.07790092       0.77000346      -0.21464914       0.19607386       0.42697256
H        3.64852260       1.64996766       2.54603316      -0.26303268       0.28111653       0.19567462
H        4.04225730       1.11411594       2.22783540       0.25173961      -0.38315710      -0.20542651
N        3.09999990       3.90000012       4.00000002       1.30819896       0.54823718      -1.17546735
N        3.91541718       4.23161412       3.29149344      -1.27455354      -0.46313083       1.14580123
10
Lattice="7.6 0.0 0.0 0.0 6.6 0.0 0.0 0.0 7.1" Properties=species:S:1:pos:R:3:forces:R:3 energy=-63.17204132 stress="0.014246904276135598 0.002797659722285719 0.004994818277902561 0.002797659722285719 0.008643511489441901 -0.0004842232497517168 0.004994818277902561 -0.0004842232497517168 0.025112583985846666" free_energy=-63.17204132 pbc="T T T"
H        4.83252050       2.01221064       1.03960898      -1.24095328      -0.71571958      -0.64239042
H        4.19087028       1.65206026       0.71395513       1.23020109       0.69974337       0.63509497
H        2.00629565       4.09766003       1.32381680      -0.41366837      -0.21441070       0.04697152
H        2.64065770       4.45811177       1.21858741       0.38565538       0.24162071      -0.09679760
N        3.59999992       3.20000003       3.70000007       1.59774575       0.57632499       0.60461673
N        6.30756232       1.10362639       5.23009920      -0.43745375      -0.49534702      -1.80105229
N        6.01297666       0.89514473       4.15930035       0.53061982       0.25171661       1.78471681
N        6.81338738       3.84704232       6.95464852      -0.61831337       0.85324037      -3.52930229
N        6.63021044       4.10357237       5.85430145       0.88633557      -0.67411127       3.77831142
N        4.61969663       3.55353907       4.03478956      -1.92016885      -0.52305748      -0.78016887
10
Lattice="6.1 0.0 0.0 0.0 6.0 0.0 0.0 0.0 6.0" Properties=species:S:1:pos:R:3:forces:R:3 energy=-52.64675457 stress="-0.004824929286597664 0.004669637368859053 -0.00440607231334779 0.004669637368859053 0.01138819924290834 0.005748690144661485 -0.00440607231334779 0.005748690144661485 0.012457501957576937" free_energy=-52.64675457 pbc="T T T"
H        4.30000017       3.40000008       4.00000002       0.14798020      -0.00926316       0.28582387
H        1.94415021       0.04063632       1.03317330      -1.14220608       0.39388848      -0.13294999
H        2.35447190       0.63228894       1.19127798      -0.85671287       0.66191177      -0.02733776
H        4.58387611       0.15394974       4.85212566      -0.29888227       0.20158656       0.00687052
H        5.21574351       5.79765606       4.72093104       0.36232309      -0.16130479      -0.11442624
H        3.75015330       3.42343308       3.50955822      -0.42222361      -0.00569536      -0.22836595
N        3.72545025       5.25193788       1.17397926       2.62431626      -2.31410389       0.07489504
N        4.03924133       4.17523242       1.03579236      -0.66429604       1.19009236       0.08185324
N        0.27630322       2.56921122       4.24291278       1.04406720      -0.79919019      -1.29047070
N        0.78614128       2.06119776       3.37179732      -0.79436588       0.84207822       1.34410797
18
Lattice="7.3 0.0 0.0 0.0 8.4 0.0 0.0 0.0 8.0" Properties=species:S:1:pos:R:3:forces:R:3 energy=-112.89886123 stress="0.01484886890193224 0.01650541260350914 0.015514818976442277 0.01650541260350914 -0.022281874598928116 0.00018669641418849495 0.015514818976442277 0.00018669641418849495 0.04011640284571552" free_energy=-112.89886123 pbc="T T T"
H        3.09392980       1.26357042       5.33905032      -0.39179124      -1.76673375      -3.45101233
H        3.16001269       1.55916642       5.92965456       0.35597662       1.75058779       3.53755906
H        2.78866628       6.86079979       3.21190432       0.30239563       0.20442081      -0.22905302
H        2.23729203       6.52881768       3.57133176      -0.35654998      -0.15064064       0.18529453
H        0.72850248       6.63763615       0.05752944      -0.24153344       3.08606058      -3.40502284
H        0.65203396       7.48583220       7.11845208       0.34672918      -3.07794307       3.43419047
N        4.09999989       4.50000004       4.50000000      -1.40065109      -0.18697939       1.50172678
N        5.15340324       7.48052743       5.85671808       0.38962682      -3.37199576       2.33353213
N        5.26212689       6.55249930       6.52351288      -0.31106016       3.42027221      -2.52685011
N        2.79733868       1.64594732       2.89610480       0.61420162       0.42918532       0.38539715
N        1.90631601       1.17942569       2.42399144      -0.83003015      -0.33562115      -0.31881188
N        4.92353865       4.85879083       1.81524240      -8.24295869       0.59493734     -12.86126906
N        4.15942860       4.91024302       0.65147152       8.24498367      -0.61630598      12.78853005
N        3.27662705       4.46252873       5.27298640       1.32181278      -0.00261247      -1.32588087
N        4.21881388       1.17936764       0.40436232     -11.99589068      23.59379971      -6.83488621
N        4.63265701       0.30819961       0.66808920      11.25909394     -24.17964719       7.48272456
N        6.93600988       2.69164703       7.57239008      -1.32793652      -0.72715548      -0.41599878
N        5.99548241       2.16617201       7.23438600       2.26358169       1.33637113      -0.28016961
6
Lattice="6.0 0.0 0.0 0.0 6.0 0.0 0.0 0.0 6.0" Properties=species:S:1:pos:R:3:forces:R:3 energy=-39.99789603 stress="0.024581093569031816 0.005840209586461094 -0.0023325111548151236 0.005840209586461094 0.013806606015106321 -0.0007670050255672786 -0.0023325111548151236 -0.0007670050255672786 0.00929988861188106" free_energy=-39.99789603 pbc="T T T"
H        1.48223040       1.04909850       4.80875586      -0.42498128       0.22499644       0.01395762
H        2.15089152       0.73920054       4.82516814       0.38634793      -0.15758986       0.03392890
N        4.50000000       4.50000000       3.79999998      -1.78828761       0.05726953       0.30194607
N        1.26596604       2.65385076       1.94259072      -1.30841981      -1.34434816       0.09668768
N        0.47162406       1.85409390       2.02173900       1.31126373       1.33198898      -0.13092889
N        3.38739822       4.54093362       3.99312354       1.82407704      -0.11231693      -0.31559138
4
Lattice="6.0 0.0 0.0 0.0 6.0 0.0 0.0 0.0 6.0" Properties=species:S:1:pos:R:3:forces:R:3 energy=-26.80515254 stress="0.045742014680882306 0.04317413360797931 -0.01934803144519833 0.04317413360797931 0.0689891754847906 -0.03106670760502462 -0.01934803144519833 -0.03106670760502462 0.02441084667086911" free_energy=-26.80515254 pbc="T T T"
N        3.00000000       3.49999998       3.70000002      -1.70143203      -0.48736566      -0.27150949
N        0.57910842       5.37687876       5.62703034      -7.07921388     -10.36823448       5.45492727
N        5.74323894       4.13962410       0.26923716       7.06399161      10.38404567      -5.41755038
N        1.91990862       3.20923188       3.53965236       1.71665431       0.47155447       0.23413259
6
Lattice="6.0 0.0 0.0 0.0 6.0 0.0 0.0 0.0 6.0" Properties=species:S:1:pos:R:3:forces:R:3 energy=-30.1167173 stress="0.06195328785938555 -0.018056611982987688 -0.055570847704383135 -0.018056611982987688 0.06626353970075358 -0.003638981654275304 -0.055570847704383135 -0.003638981654275304 0.0726198353599144" free_energy=-30.1167173 pbc="T T T"
H        3.29999994       3.20000004       3.29999994      -0.50747348       0.02542045       0.00290319
H        4.02797556       3.15215280       3.40571496       0.47284690      -0.04260407       0.15532275
N        1.50845622       5.91387126       2.06441592      -6.43546439      -3.93708454       9.04268073
N        0.55035786       5.33015058       3.42432786       6.43251939       3.92984195      -9.02511344
N        4.81233882       3.07937742       0.97084830       8.03106148     -10.50873341      -4.83258006
N        5.55523488       2.09728836       0.53731398      -7.99348990      10.53315961       4.65678681
8
Lattice="6.0 0.0 0.0 0.0 6.0 0.0 0.0 0.0 6.0" Properties=species:S:1:pos:R:3:forces:R:3 energy=-27.04077049 stress="-0.0009578351413177731 0.00038184894352940994 -0.0006228466556338356 0.00038184894352940994 0.0009201900719683751 -0.000470331847448713 -0.0006228466556338356 -0.000470331847448713 -6.147761658812492e-06" free_energy=-27.04077049 pbc="T T T"
H        4.00000002       3.29999994       3.40000008       0.35151586       0.01582407       0.25260207
H        1.44678330       2.23616934       1.48462758       0.00584610       0.16290346       0.46163961
H        1.42765524       1.98177636       0.79301214      -0.01430311      -0.17075251      -0.46464985
H        3.38068176       3.24904728       3.00343680      -0.38963530      -0.04547567      -0.23372183
H        5.11657332       4.78187178       5.60273124      -0.45154044       0.02258861       0.01838050
H        5.85154488       4.72868202       5.58269358       0.47276630      -0.05123604      -0.00114490
H        5.18974212       5.78200818       2.84056116       0.39805989      -0.13373566      -0.02585803
H        4.51881168       0.08701944       2.85587094      -0.37270930       0.19988372      -0.00724756
5
Lattice="6.0 0.0 0.0 0.0 6.0 0.0 0.0 0.0 6.0" Properties=species:S:1:pos:R:3:forces:R:3 energy=-33.21351894 stress="0.02054432640738731 0.00044802872584770155 0.008619607152365209 0.00044802872584770155 0.00915921644311139 0.0006000509104420456 0.008619607152365209 0.0006000509104420456 0.01733034850186225" free_energy=-33.22762368 pbc="T T T"
H        1.56326724       4.47911310       0.31860972      -0.06252642       0.02423967       0.01424246
N        3.40000008       3.49999998       4.40000010       0.86258752      -0.57969940       1.58900965
N        3.98285148       3.24625896       5.33421324      -0.87642985       0.36764358      -1.46415604
N        5.22230148       5.81649876       3.05452038      -1.57730118      -0.41580870      -0.73889669
N        4.21369788       5.54262684       2.62490676       1.65366993       0.60362484       0.59980062
8
Lattice="6.6 0.0 0.0 0.0 6.5 0.0 0.0 0.0 6.1" Properties=species:S:1:pos:R:3:forces:R:3 energy=-53.56976062 stress="0.05163352331198866 0.0015205028511673063 0.005602946493825158 0.0015205028511673063 0.016876333831721334 -0.0031522115629662797 0.005602946493825158 -0.0031522115629662797 0.014998281130828994" free_energy=-53.59796619 pbc="T T T"
H        0.70320631       3.82581446       5.93561220       3.98163852      -0.37868612       0.76655217
N        4.40000009       3.79999997       3.00000001      -0.89689425      -1.79797846      -0.66199414
N        2.37522938       3.64344884       0.14247862      -4.01015590       0.40368966      -0.75114245
N        5.38262604       5.38634824       5.82224370      -1.03404025      -0.23234079      -1.38773378
N        4.61718464       5.32626770       4.99318123       1.02015728       0.51557874       1.80014981
N        1.22506738       0.65219388       1.63505205      -1.70362078      -0.25488962       0.55581889
N        0.16032317       0.50848005       1.98508213       1.74425075       0.29269873      -0.51372780
N        3.77156162       2.86630344       2.89934708       0.89866464       1.45192786       0.19207731
12
Lattice="7.4 0.0 0.0 0.0 6.9 0.0 0.0 0.0 7.1" Properties=species:S:1:pos:R:3:forces:R:3 energy=-72.27298001 stress="0.01884600642526115 0.008352435653016865 0.0157092752654402 0.008352435653016865 0.02224450300130107 0.0002449649900670926 0.0157092752654402 0.0002449649900670926 0.017095194390193916" free_energy=-72.27298001 pbc="T T T"
H        6.09622434       1.79982712       2.38913438      29.17461164      -0.63868469      -0.00953390
H        5.35556892       1.28400423       5.95649431      -1.79855243       1.95067862       1.33624611
H        4.83027652       1.87055647       6.34737018       1.76260623      -1.95810852      -1.31295875
H        5.62392903       1.81037508       2.38864327     -29.28713677       0.65285557      -0.04180779
N        3.70000007       3.59999993       3.79999995      -1.67408351       0.68975929      -0.20454358
N        2.65205958       4.02112342       3.76352142       1.80682752      -0.58505043      -0.12381735
N        3.80019304       5.08764269       6.32356594      14.09421931       2.85408072       4.71893074
N        5.19332503       5.36406614       6.77571346     -14.01192721      -2.76303102      -4.54293889
N        1.61677191       2.62683083       6.05925750       4.86954640      -1.46083466       0.36222829
N        0.57130183       2.92109609       6.03075406      -4.98320871       1.46522615      -0.03599468
N        1.05149863       1.58745292       3.09719274       0.29693049      -2.80259712       1.47348519
N        1.14804148       0.61207699       3.67808315      -0.24983294       2.59570610      -1.61929539
11
Lattice="6.5 0.0 0.0 0.0 7.8 0.0 0.0 0.0 8.2" Properties=species:S:1:pos:R:3:forces:R:3 energy=-33.67548308 stress="0.017748568472932248 -0.013565779632427402 -0.0019022277447028391 -0.013565779632427402 0.03083698198350343 -0.011621734981192407 -0.0019022277447028391 -0.011621734981192407 0.037501485847421" free_energy=-33.69111327 pbc="T T T"
H        3.50000001       3.99999998       3.90000011       0.32441743       0.37578956       0.37897707
H        3.13558076       3.54633614       3.44745015      -0.26834122      -0.40703627      -0.38918368
H        4.81829881       6.49048756       3.84011863       0.45689254      -0.16620285      -0.10852638
H        4.14788296       6.74816368       4.00612738      -0.44215207       0.17817056       0.10759786
H        5.71215866       4.96286965       6.77926013       3.51472904      -2.51805649      -1.09513011
H        0.03556254       4.37342116       6.52348991      -3.51382760       2.48567362       1.05933818
H        2.61896135       5.42795136       8.05722234       2.47056383       1.19855157      -3.20767685
H        3.20046064       5.70898341       7.29251674      -2.47194901      -1.16422314       3.23837762
N        6.07171968       1.98022773       0.21231251       2.23156122      -4.86061844       6.80474037
N        5.65304753       3.00651577       2.79261758       0.58841323      -1.54701881      -1.79287842
N        0.12649299       0.74928929       1.51036759      -2.89030739       6.42497069      -4.99563567
6
Lattice="6.3 0.0 0.0 0.0 6.0 0.0 0.0 0.0 6.0" Properties=species:S:1:pos:R:3:forces:R:3 energy=-48.17231571 stress="0.07254667374434828 0.0186916269162926 0.028499910139245493 0.0186916269162926 0.02188360787120531 8.667281634072387e-05 0.028499910139245493 8.667281634072387e-05 0.014344736530061344" free_energy=-48.17231571 pbc="T T T"
N        3.00000002       3.79999998       4.09999992      -2.21711213       0.13915809      -0.37560852
N        5.86889169       3.92811420       4.66717914      -0.89209045      -1.55446422       0.80886526
N        5.49277546       2.91160986       4.98672678       0.74464775       1.52451393      -0.47335903
N        2.34483600       2.51008632       1.17374364      12.05046580       2.54732928       4.44888161
N        3.50695655       2.77003908       1.62469854     -11.86479702      -2.89083318      -5.03139034
N        1.92616376       3.73637412       3.75404856       2.17888606       0.23429609       0.62261103
6
Lattice="6.7 0.0 0.0 0.0 6.1 0.0 0.0 0.0 6.1" Properties=species:S:1:pos:R:3:forces:R:3 energy=-29.64036815 stress="0.040274371746718225 0.012823387823335787 0.01249971182328215 0.012823387823335787 0.012538079322346832 0.004270493234749366 0.01249971182328215 0.004270493234749366 0.0068989899655886935" free_energy=-29.64036815 pbc="T T T"
H        3.09999988       3.99999997       3.09999987       0.25474303      -0.26204862      -0.18404103
H        5.88590049       2.95405865       3.43077304       0.26430445      -1.25203749       0.05088210
H        6.04965070       2.17727873       3.45654414      -0.26390845       1.25261412      -0.04506975
H        2.58615397       4.36776067       3.47964191      -0.34535580       0.19719554       0.27932658
N        4.47608709       5.43726397       1.51820027       8.53275334       3.24444138       2.55121141
N        5.55841635       5.84225463       1.85667121      -8.44253657      -3.18016493      -2.65230930
4
Lattice="6.1 0.0 0.0 0.0 6.3 0.0 0.0 0.0 6.0" Properties=species:S:1:pos:R:3:forces:R:3 energy=-33.24226095 stress="0.01722394877177826 0.008775439665933742 -0.0020061830376697505 0.008775439665933742 0.020017919231642305 -0.0012591789717869288 -0.0020061830376697505 -0.0012591789717869288 0.009473163434641475" free_energy=-33.24226095 pbc="T T T"
N        3.00000001       3.00000002       4.50000000       1.43303711       1.10571141      -0.48068562
N        3.86440679       3.66981747       4.21539498      -1.43156259      -1.12053363       0.49415943
N        2.55827357       6.14071036       1.64854860      -0.93484170      -1.64201351      -0.01094381
N        2.01106929       5.15207675       1.64340186       0.93336718       1.65683574      -0.00253000
8
Lattice="7.4 0.0 0.0 0.0 7.2 0.0 0.0 0.0 6.2" Properties=species:S:1:pos:R:3:forces:R:3 energy=-33.73826204 stress="0.009226913255430272 -0.004209000700954431 -0.011191515303129807 -0.004209000700954431 0.006877086687545304 0.0029232442348718114 -0.011191515303129807 0.0029232442348718114 0.04045076868469057" free_energy=-33.73826204 pbc="T T T"
H        4.19999980       3.00000002       3.20000005      -0.29658923      -0.24596979      -0.24385570
H        4.85277511       3.24341582       3.44093037       0.41730603      -0.00351219      -0.00685043
H        1.59393536       2.46406435       5.15593531       0.42733023       0.24705349       0.02438006
H        0.96659496       2.07755777       5.13424871      -0.44080404      -0.26690927      -0.01541374
N        4.85825873       0.11991528       4.55390787      -1.93978545       1.55336306       4.73127520
N        3.76537922       5.16912840       4.68276024      -0.12023329      -1.13423212       1.43422756
N        3.77856780       4.45229719       5.55616329      -0.10848419       1.07288466      -1.23757388
N        4.05368996       0.67608850       0.47430694       2.06125995      -1.22267785      -4.68618908
6
Lattice="6.2 0.0 0.0 0.0 6.5 0.0 0.0 0.0 6.4" Properties=species:S:1:pos:R:3:forces:R:3 energy=-39.82509936 stress="0.008102128087175744 -0.0010439292012417811 0.007588831014104386 -0.0010439292012417811 0.015753411847563518 0.0014108237385659398 0.007588831014104386 0.0014108237385659398 0.008444041970381996" free_energy=-39.82509936 pbc="T T T"
H        2.95811418       6.41681001       3.39319968      -0.30986778       0.14917901      -0.34497432
H        3.42152072       6.15908715       3.90530035       0.31583376      -0.18078279       0.34260436
N        3.29999997       2.99999999       3.09999987       1.00276576      -0.47826859       1.47037141
N        5.90288304       4.57114456       2.05747725      -0.32269647      -1.70582135      -0.31163843
N        5.65227080       3.47983051       1.90554950       0.92839372       1.91381402      -0.16509124
N        4.08850097       2.74865961       3.86938240      -1.61442900       0.30187969      -0.99127178
8
Lattice="6.9 0.0 0.0 0.0 6.6 0.0 0.0 0.0 6.3" Properties=species:S:1:pos:R:3:forces:R:3 energy=-36.03613999 stress="0.02647237364431276 0.01890368442954626 -0.00673076351258664 0.01890368442954626 0.025228819129701787 -0.0053678597779723645 -0.00673076351258664 -0.0053678597779723645 0.0034926289257709285" free_energy=-36.03613999 pbc="T T T"
H        4.49999998       2.99999997       3.50000003      -0.37957569      -0.02987408      -0.11981411
H        5.11347339       3.42845679       0.79242937       3.41251377      -0.29370900      -0.01163276
H        6.01040791       3.38502787       0.76112530      -3.20786566       0.04778200       0.21316464
H        5.20503184       3.00356773       3.71524646       0.36130043      -0.03176461       0.10400362
H        0.82717524       2.39386679       2.88249110      -0.42302835      -0.01179132      -0.16318802
H        1.52456245       2.40106271       3.12216187       0.42572558       0.00056695       0.15387972
N        4.11796713       4.83585313       5.67542839       5.59763881       7.35621687      -2.11867238
N        4.85521984       5.75181004       5.41918276      -5.78670888      -7.03742679       1.94225931
6
Lattice="6.0 0.0 0.0 0.0 6.0 0.0 0.0 0.0 6.2" Properties=species:S:1:pos:R:3:forces:R:3 energy=-26.04049244 stress="0.012431415089589105 7.231576000787441e-05 -0.011630177751998315 7.231576000787441e-05 0.015950003556561697 -0.0036671116990000213 -0.011630177751998315 -0.0036671116990000213 0.029404994941491538" free_energy=-26.06869926 pbc="T T T"
H        3.00000000       4.40000010       3.09999988      -0.15617205      -0.36308894      -0.40797984
H        0.42032136       4.99993086       0.56803234      -1.30463013       0.00155423       2.92035038
H        3.16907502       4.89016152       3.62399319       0.11306417       0.34606756       0.35743490
N        3.17108796       1.38152610       5.77594660      -0.09384996      -1.64853377       0.57553744
N        3.10378554       0.31028382       6.12916754       0.09396416       1.67694553      -0.54856085
N        5.54176332       5.01319884       2.38986589       1.34762381      -0.01294461      -2.89678203
10
Lattice="6.4 0.0 0.0 0.0 6.6 0.0 0.0 0.0 7.2" Properties=species:S:1:pos:R:3:forces:R:3 energy=-38.8357048 stress="0.009371310038529305 0.005166688461517214 -0.04105687975721085 0.005166688461517214 0.007083867816229216 -0.020784801474242057 -0.04105687975721085 -0.020784801474242057 0.03622984240714743" free_energy=-38.8357048 pbc="T T T"
H        3.70000006       4.19999983       3.49999999      -0.18732433      -0.31955354       0.33862680
H        1.27053747       1.55318262       6.64902972      -0.26515936      -0.35697226       0.10941703
H        1.69789805       2.12523511       6.46591090       0.27445022       0.36584420      -0.11323445
H        3.98235155       4.67884065       3.01584816       0.19504154       0.31931897      -0.33905730
H        1.82753920       5.44288873       5.60814667       1.14947820      -0.49152014       3.08032081
H        1.59106054       5.54212190       4.98372509      -1.18697661       0.48300136      -3.06961202
H        0.30217645       1.86837460       2.05731842      -9.52852576      -4.60424465      -5.92541487
H        0.74931571       2.08484938       2.33617874       9.52035084       4.60725760       5.94513801
N        4.18119859       4.93157386       0.07638343       8.08306870       4.84585836     -11.94175663
N        4.95529747       5.39541149       6.13955117      -8.05440343      -4.84898990      11.91557263
6
Lattice="6.0 0.0 0.0 0.0 6.0 0.0 0.0 0.0 6.0" Properties=species:S:1:pos:R:3:forces:R:3 energy=-29.19606546 stress="-0.0010779710848218614 0.008991537638844568 0.007414754157421295 0.008991537638844568 -0.0038996730066378463 -0.007707612849720595 0.007414754157421295 -0.007707612849720595 0.007353600156839838" free_energy=-29.19606546 pbc="T T T"
H        3.80052018       5.82273624       5.48052600      -6.27262853       9.33850277       4.67760914
H        4.09425450       5.38688424       5.26232814       6.29477355      -9.32576272      -4.67337288
H        1.33236006       5.63123466       1.03940616      -0.94854017       0.98078898      -1.24592568
H        0.91722210       0.06143568       0.48078618       0.93318380      -0.97156684       1.27459777
N        3.09999990       3.79999998       3.00000000       0.41112083      -1.52434224      -1.07104057
N        3.35487678       2.89188054       2.37773682      -0.41790949       1.50238004       1.03813221
8
Lattice="6.0 0.0 0.0 0.0 6.0 0.0 0.0 0.0 6.0" Properties=species:S:1:pos:R:3:forces:R:3 energy=-46.52603745 stress="0.006855586105429207 -0.005077404865599697 0.003967316553917849 -0.005077404865599697 0.01533638798057788 -0.0068009490580128685 0.003967316553917849 -0.0068009490580128685 0.01463165940986873" free_energy=-46.52603745 pbc="T T T"
H        3.25309872       1.39630056       1.85969424       0.40562509       0.17744237       0.00299607
H        2.62575816       1.00979400       1.83800766      -0.42124251      -0.30280914      -0.02518253
H        5.20090056       1.47850134       4.86396264      -0.46031889       0.03587794      -0.00329667
H        5.93497560       1.41353190       4.88203050       0.46412893      -0.05809264       0.02677651
N        3.09999990       3.59999988       3.20000004      -1.99360713       0.95615131      -0.02743810
N        2.16339660       4.18233012       2.95399068       1.56755227      -0.77928493       0.41234184
N        5.42454240       4.10136462       1.38651882       0.06935993      -1.14981697       1.31177984
N        5.43773082       3.38453340       2.25992226       0.36850232       1.12053207      -1.69797696
8
Lattice="6.6 0.0 0.0 0.0 6.4 0.0 0.0 0.0 6.4" Properties=species:S:1:pos:R:3:forces:R:3 energy=-34.10670058 stress="0.007701145060922862 0.025548036807303786 -0.0027125290642613276 0.025548036807303786 -0.10097404312342342 -0.024231332941692118 -0.0027125290642613276 -0.024231332941692118 0.008181430686121769" free_energy=-34.10670058 pbc="T T T"
H        3.59999990       4.30000019       3.29999994       0.38607606      -0.22447527       0.12009608
H        3.03769158       4.67857933       3.01034400      -0.27713521       0.24136462      -0.24732145
H        5.51937058       1.89929280       4.77784493      -2.72043136       1.03851271       3.09940499
H        4.87429140       2.14369773       5.51224659       2.71449256      -1.02518147      -3.08887576